<?xml version="1.0"?>
<VTKFile type="RectilinearGrid" version="0.1" byte_order="LittleEndian">
<RectilinearGrid WholeExtent="0 37 0 14 0 34">
<Piece Extent="0 37 0 14 0 34">
<PointData>
<DataArray type="Float32" Name="MVP" NumberOfComponents="3" format="ascii">
0 0 0
0 0 0
0 0 0
0 0 0
0 0 0
0 0 0
0 0 0
0 0 0
0 0 0
0 0 0
0 0 0
0 0 0
0 0 0
0 0 0
0 0 0
0 0 0
0 0 0
0 0 0
0 0 0
0 0 0
0 0 0
0 0 0
0 0 0
0 0 0
0 0 0
0 0 0
0 0 0
0 0 0
0 0 0
0 0 0
0 0 0
0 0 0
0 0 0
0 0 0
0 0 0
0 0 0
0 0 0
0 0 0
0 0 0
0 0 -3.3802e-05
0 0 -7.11776e-05
0 0 -0.00011517
0 0 -0.000167684
0 0 -0.000200676
0 0 -0.000242827
0 0 -0.000339554
0 0 -0.000440587
0 0 -0.000543402
0 0 -0.000644849
0 0 -0.000740278
0 0 -0.000822906
0 0 -0.000859889
0 0 -0.000897987
0 0 -0.000962617
0 0 -0.00100414
0 0 -0.00102285
0 0 -0.00102739
0 0 -0.00102646
0 0 -0.00102106
0 0 -0.0010008
0 0 -0.000958081
0 0 -0.000892729
0 0 -0.000854523
0 0 -0.000817669
0 0 -0.000735748
0 0 -0.000641346
0 0 -0.00054108
0 0 -0.00043943
0 0 -0.000339403
0 0 -0.00024344
0 0 -0.000201494
0 0 -0.000168487
0 0 -0.00011572
0 0 -7.1497e-05
0 0 -3.39444e-05
0 0 0
0 0 0
0 0 -6.31525e-05
0 0 -0.000133342
0 0 -0.000216488
0 0 -0.000315876
0 0 -0.000378368
0 0 -0.000459094
0 0 -0.000645164
0 0 -0.000838375
0 0 -0.00103445
0 0 -0.00122738
0 0 -0.00140716
0 0 -0.0015572
0 0 -0.00162447
0 0 -0.00170061
0 0 -0.0018324
0 0 -0.00191209
0 0 -0.00194036
0 0 -0.00194757
0 0 -0.00194579
0 0 -0.00193691
0 0 -0.00190564
0 0 -0.00182367
0 0 -0.00169057
0 0 -0.00161426
0 0 -0.00154723
0 0 -0.00139853
0 0 -0.00122076
0 0 -0.00103014
0 0 -0.00083635
0 0 -0.000645086
0 0 -0.000460424
0 0 -0.000380031
0 0 -0.000317445
0 0 -0.000217495
0 0 -0.000133897
0 0 -6.33912e-05
0 0 0
0 0 0
0 0 -8.3317e-05
0 0 -0.000176549
0 0 -0.000287662
0 0 -0.000419245
0 0 -0.000500387
0 0 -0.000606998
0 0 -0.000856347
0 0 -0.0011127
0 0 -0.0013722
0 0 -0.00162682
0 0 -0.00186002
0 0 -0.00203704
0 0 -0.00211579
0 0 -0.00222725
0 0 -0.00242676
0 0 -0.00253353
0 0 -0.00254858
0 0 -0.00255447
0 0 -0.00255205
0 0 -0.00254386
0 0 -0.00252468
0 0 -0.00241485
0 0 -0.00221373
0 0 -0.00210211
0 0 -0.00202367
0 0 -0.00184843
0 0 -0.00161801
0 0 -0.00136667
0 0 -0.00111042
0 0 -0.000856787
0 0 -0.000609218
0 0 -0.000502871
0 0 -0.000421406
0 0 -0.000288881
0 0 -0.000177153
0 0 -8.35566e-05
0 0 0
0 0 0
0 0 -8.93482e-05
0 0 -0.000189734
0 0 -0.000308577
0 0 -0.000440474
0 0 -0.000509025
0 0 -0.00059982
0 0 -0.000829907
0 0 -0.0010655
0 0 -0.00130638
0 0 -0.00154389
0 0 -0.00175686
0 0 -0.00187538
0 0 -0.00192183
0 0 -0.00205249
0 0 -0.00229458
0 0 -0.0023965
0 0 -0.0023576
0 0 -0.00235784
0 0 -0.00235531
0 0 -0.00235264
0 0 -0.00238708
0 0 -0.00228199
0 0 -0.00203855
0 0 -0.0019079
0 0 -0.00186168
0 0 -0.00174485
0 0 -0.0015349
0 0 -0.00130107
0 0 -0.0010639
0 0 -0.000831453
0 0 -0.000603068
0 0 -0.00051202
0 0 -0.000442665
0 0 -0.00030953
0 0 -0.000190092
0 0 -8.94553e-05
0 0 0
0 0 0
0 0 -8.09904e-05
0 0 -0.000171971
0 0 -0.000278326
0 0 -0.000385502
0 0 -0.000406977
0 0 -0.000409449
0 0 -0.000468831
0 0 -0.000563591
0 0 -0.000672299
0 0 -0.000785627
0 0 -0.000897528
0 0 -0.00100209
0 0 -0.00104922
0 0 -0.00109221
0 0 -0.00116408
0 0 -0.0012149
0 0 -0.00124429
0 0 -0.0012511
0 0 -0.00124912
0 0 -0.00124042
0 0 -0.00120765
0 0 -0.00115441
0 0 -0.00108137
0 0 -0.00103833
0 0 -0.000991466
0 0 -0.000888373
0 0 -0.000778855
0 0 -0.000668457
0 0 -0.000562863
0 0 -0.000470992
0 0 -0.000413391
0 0 -0.000410001
0 0 -0.000387306
0 0 -0.000278983
0 0 -0.000172162
0 0 -8.10244e-05
0 0 0
0 0 0
0 0 -5.95099e-05
0 0 -0.000126521
0 0 -0.000205243
0 0 -0.000287155
0 0 -0.000317226
0 0 -0.000282129
0 0 -0.000279267
0 0 -0.000314808
0 0 -0.000363324
0 0 -0.000416592
0 0 -0.000470386
0 0 -0.000521361
0 0 -0.000544586
0 0 -0.000565936
0 0 -0.000602094
0 0 -0.000627905
0 0 -0.000642767
0 0 -0.000646086
0 0 -0.000644548
0 0 -0.000639767
0 0 -0.000622275
0 0 -0.00059457
0 0 -0.000557492
0 0 -0.000536077
0 0 -0.000513043
0 0 -0.00046316
0 0 -0.000411152
0 0 -0.000360077
0 0 -0.000313854
0 0 -0.000280311
0 0 -0.00028402
0 0 -0.000318272
0 0 -0.000288058
0 0 -0.00020561
0 0 -0.000126623
0 0 -5.95217e-05
0 0 0
0 0 0
0 0 2.58022e-09
0 0 3.90879e-09
0 0 1.77025e-09
0 0 -8.8145e-09
0 0 -2.53987e-08
0 0 -2.64114e-08
0 0 -3.40097e-08
0 0 -4.22161e-08
0 0 -5.11063e-08
0 0 -5.97997e-08
0 0 -6.72028e-08
0 0 -7.22546e-08
0 0 -7.33363e-08
0 0 -7.32452e-08
0 0 -6.98884e-08
0 0 -6.26562e-08
0 0 -5.16512e-08
0 0 -4.47933e-08
0 0 -2.85711e-08
0 0 -1.94699e-08
0 0 4.49641e-10
0 0 2.23833e-08
0 0 4.56151e-08
0 0 5.70574e-08
0 0 6.78868e-08
0 0 8.85789e-08
0 0 1.08701e-07
0 0 1.27862e-07
0 0 1.45563e-07
0 0 1.61088e-07
0 0 1.73049e-07
0 0 1.76473e-07
0 0 1.06059e-07
0 0 4.87043e-08
0 0 2.25603e-08
0 0 9.03815e-09
0 0 0
0 0 0
0 0 5.95147e-05
0 0 0.000126528
0 0 0.000205245
0 0 0.000287134
0 0 0.000317172
0 0 0.000282076
0 0 0.000279202
0 0 0.000314726
0 0 0.000363223
0 0 0.000416472
0 0 0.00047025
0 0 0.000521213
0 0 0.000544436
0 0 0.000565786
0 0 0.00060195
0 0 0.000627776
0 0 0.00064266
0 0 0.000645993
0 0 0.000644487
0 0 0.000639725
0 0 0.000622273
0 0 0.000594613
0 0 0.000557582
0 0 0.00053619
0 0 0.000513178
0 0 0.000463336
0 0 0.000411369
0 0 0.000360333
0 0 0.000314146
0 0 0.000280635
0 0 0.000284375
0 0 0.000318639
0 0 0.000288279
0 0 0.00020571
0 0 0.000126669
0 0 5.95398e-05
0 0 0
0 0 0
0 0 8.0995e-05
0 0 0.000171977
0 0 0.000278327
0 0 0.000385479
0 0 0.000406912
0 0 0.000409392
0 0 0.000468766
0 0 0.000563509
0 0 0.000672198
0 0 0.000785506
0 0 0.00089739
0 0 0.00100194
0 0 0.00104907
0 0 0.00109205
0 0 0.00116393
0 0 0.00121476
0 0 0.00124418
0 0 0.00125101
0 0 0.00124906
0 0 0.00124038
0 0 0.00120765
0 0 0.00115445
0 0 0.00108147
0 0 0.00103844
0 0 0.000991604
0 0 0.000888551
0 0 0.000779074
0 0 0.000668715
0 0 0.000563157
0 0 0.00047132
0 0 0.000413755
0 0 0.000410394
0 0 0.000387525
0 0 0.000279078
0 0 0.000172205
0 0 8.10417e-05
0 0 0
0 0 0
0 0 8.93526e-05
0 0 0.00018974
0 0 0.000308581
0 0 0.000440464
0 0 0.000509
0 0 0.000599794
0 0 0.000829876
0 0 0.00106545
0 0 0.00130632
0 0 0.00154382
0 0 0.00175678
0 0 0.00187528
0 0 0.00192173
0 0 0.00205239
0 0 0.00229449
0 0 0.00239642
0 0 0.00235753
0 0 0.00235778
0 0 0.00235526
0 0 0.00235261
0 0 0.00238707
0 0 0.00228201
0 0 0.0020386
0 0 0.00190797
0 0 0.00186176
0 0 0.00174495
0 0 0.00153503
0 0 0.00130121
0 0 0.00106407
0 0 0.000831644
0 0 0.000603283
0 0 0.000512236
0 0 0.000442818
0 0 0.000309606
0 0 0.000190128
0 0 8.94702e-05
0 0 0
0 0 0
0 0 8.33208e-05
0 0 0.000176556
0 0 0.000287668
0 0 0.000419247
0 0 0.000500385
0 0 0.000606994
0 0 0.000856339
0 0 0.00111268
0 0 0.00137218
0 0 0.00162678
0 0 0.00185998
0 0 0.00203699
0 0 0.00211573
0 0 0.0022272
0 0 0.00242671
0 0 0.00253349
0 0 0.00254854
0 0 0.00255443
0 0 0.00255202
0 0 0.00254384
0 0 0.00252467
0 0 0.00241486
0 0 0.00221375
0 0 0.00210214
0 0 0.00202371
0 0 0.00184848
0 0 0.00161807
0 0 0.00136674
0 0 0.00111049
0 0 0.000856873
0 0 0.000609313
0 0 0.000502964
0 0 0.000421481
0 0 0.000288924
0 0 0.000177176
0 0 8.35664e-05
0 0 0
0 0 0
0 0 6.31553e-05
0 0 0.000133347
0 0 0.000216494
0 0 0.000315881
0 0 0.000378371
0 0 0.000459096
0 0 0.000645163
0 0 0.000838369
0 0 0.00103444
0 0 0.00122736
0 0 0.00140713
0 0 0.00155717
0 0 0.00162444
0 0 0.00170058
0 0 0.00183237
0 0 0.00191206
0 0 0.00194034
0 0 0.00194755
0 0 0.00194578
0 0 0.0019369
0 0 0.00190563
0 0 0.00182367
0 0 0.00169057
0 0 0.00161427
0 0 0.00154724
0 0 0.00139855
0 0 0.00122078
0 0 0.00103017
0 0 0.000836384
0 0 0.000645125
0 0 0.000460467
0 0 0.000380073
0 0 0.000317481
0 0 0.000217517
0 0 0.00013391
0 0 6.33969e-05
0 0 0
0 0 0
0 0 3.38034e-05
0 0 7.11802e-05
0 0 0.000115174
0 0 0.000167687
0 0 0.000200679
0 0 0.000242829
0 0 0.000339554
0 0 0.000440585
0 0 0.000543397
0 0 0.000644842
0 0 0.000740268
0 0 0.000822893
0 0 0.000859875
0 0 0.000897974
0 0 0.000962604
0 0 0.00100413
0 0 0.00102284
0 0 0.00102737
0 0 0.00102646
0 0 0.00102105
0 0 0.00100079
0 0 0.000958081
0 0 0.000892731
0 0 0.000854527
0 0 0.000817675
0 0 0.000735755
0 0 0.000641356
0 0 0.000541091
0 0 0.000439444
0 0 0.000339419
0 0 0.000243457
0 0 0.000201511
0 0 0.000168502
0 0 0.000115729
0 0 7.15027e-05
0 0 3.3947e-05
0 0 0
0 0 0
0 0 0
0 0 0
0 0 0
0 0 0
0 0 0
0 0 0
0 0 0
0 0 0
0 0 0
0 0 0
0 0 0
0 0 0
0 0 0
0 0 0
0 0 0
0 0 0
0 0 0
0 0 0
0 0 0
0 0 0
0 0 0
0 0 0
0 0 0
0 0 0
0 0 0
0 0 0
0 0 0
0 0 0
0 0 0
0 0 0
0 0 0
0 0 0
0 0 0
0 0 0
0 0 0
0 0 0
0 0 0
0 0 0
0 -3.39051e-05 0
0 -7.14998e-05 0
0 -0.000115931 0
0 -0.000169174 0
0 -0.000202646 0
0 -0.000245348 0
0 -0.000343363 0
0 -0.000445832 0
0 -0.000550138 0
0 -0.000653057 0
0 -0.000749879 0
0 -0.000833769 0
0 -0.000871318 0
0 -0.000909933 0
0 -0.000975442 0
0 -0.00101761 0
0 -0.00103673 0
0 -0.00104137 0
0 -0.00104049 0
0 -0.00103501 0
0 -0.00101443 0
0 -0.000971175 0
0 -0.000905083 0
0 -0.000866445 0
0 -0.000829123 0
0 -0.000746174 0
0 -0.000650678 0
0 -0.000549309 0
0 -0.000446598 0
0 -0.000345583 0
0 -0.000248695 0
0 -0.000206289 0
0 -0.000172815 0
0 -0.000119069 0
0 -7.37873e-05 0
0 -3.51077e-05 0
0 0 0
-3.4232e-05 0 0
-3.78628e-05 -2.93964e-05 -3.49084e-05
-4.45909e-05 -6.23762e-05 -7.41969e-05
-5.32625e-05 -0.000101927 -0.000121891
-6.68542e-05 -0.000149522 -0.000180977
-8.52436e-05 -0.000179516 -0.000219238
-9.77588e-05 -0.000218667 -0.00026753
-0.000102121 -0.000309365 -0.000376909
-0.000103907 -0.000403029 -0.000492285
-0.000102513 -0.000497812 -0.000611112
-9.64503e-05 -0.000590784 -0.00073098
-8.35941e-05 -0.000676535 -0.000848926
-7.48848e-05 -0.00074522 -0.000961182
-7.70825e-05 -0.000776081 -0.00101045
-6.54643e-05 -0.000814639 -0.00104931
-4.22848e-05 -0.000882678 -0.00110875
-1.94006e-05 -0.000921496 -0.00115413
-9.6994e-06 -0.000931464 -0.0011865
3.45992e-07 -0.000934245 -0.00119412
1.02923e-05 -0.00093343 -0.00119299
1.98e-05 -0.000929879 -0.0011843
4.23271e-05 -0.00091855 -0.00115004
6.50305e-05 -0.000878751 -0.00110319
7.613e-05 -0.000810244 -0.00104281
7.34454e-05 -0.000771698 -0.00100381
8.16835e-05 -0.000741042 -0.000954739
9.41666e-05 -0.00067321 -0.000843447
0.000100003 -0.000588712 -0.000726806
0.00010133 -0.000497233 -0.000608388
9.96359e-05 -0.000404018 -0.000490964
9.55185e-05 -0.000311808 -0.000376784
8.34478e-05 -0.000222239 -0.000268314
6.55861e-05 -0.000183363 -0.000220261
5.23823e-05 -0.000153343 -0.000181955
4.39164e-05 -0.000105203 -0.000122526
3.73113e-05 -6.47558e-05 -7.45552e-05
3.37382e-05 -3.06451e-05 -3.50654e-05
0 0 0
-6.39111e-05 0 0
-7.10578e-05 -2.01011e-05 -6.58606e-05
-8.42311e-05 -4.32014e-05 -0.000140907
-0.000100781 -7.14737e-05 -0.000234012
-0.000126634 -0.000104358 -0.000352462
-0.000163256 -0.000123535 -0.000431243
-0.000188059 -0.000150059 -0.000530882
-0.000195293 -0.000214846 -0.00075518
-0.00019815 -0.000279572 -0.000990381
-0.000194943 -0.000344576 -0.00123163
-0.000181698 -0.000407777 -0.00147474
-0.000151859 -0.000462633 -0.00171437
-0.000136274 -0.000490892 -0.00194379
-0.000153933 -0.000502937 -0.00204484
-0.000133349 -0.00053879 -0.00212404
-8.11166e-05 -0.000607399 -0.0022452
-2.95576e-05 -0.000635129 -0.00233802
-1.55844e-05 -0.00062231 -0.00240472
7.06493e-07 -0.000621108 -0.0024203
1.68113e-05 -0.000620501 -0.00241802
3.04205e-05 -0.000621125 -0.00240028
8.1259e-05 -0.00063289 -0.00232977
0.000132526 -0.000604467 -0.002234
0.000152118 -0.00053567 -0.00211103
0.000133596 -0.000499901 -0.00203159
0.000148281 -0.000487994 -0.00193095
0.000177361 -0.000460336 -0.00170349
0.000190142 -0.000406498 -0.00146653
0.000193195 -0.000344581 -0.00122639
0.000190507 -0.000281003 -0.000988012
0.000183768 -0.000217691 -0.000755219
0.000159886 -0.000154042 -0.000532648
0.00012431 -0.000127741 -0.000433386
9.91943e-05 -0.000108486 -0.000354412
8.30177e-05 -7.49924e-05 -0.000235184
7.00638e-05 -4.5748e-05 -0.000141528
6.30198e-05 -2.14348e-05 -6.61216e-05
0 0 0
-8.42162e-05 0 0
-9.42768e-05 -5.82242e-06 -8.86335e-05
-0.000112458 -1.28772e-05 -0.000191854
-0.000133395 -2.07504e-05 -0.000325205
-0.000164531 -2.16376e-05 -0.000504421
-0.000215735 -9.62167e-06 -0.000631493
-0.000252141 5.39585e-06 -0.000791836
-0.000259221 2.2856e-05 -0.00114703
-0.00026232 4.18984e-05 -0.00151398
-0.00025732 5.88898e-05 -0.00188704
-0.00023578 7.4451e-05 -0.00226177
-0.000179439 9.32431e-05 -0.00263167
-0.000159783 0.000150446 -0.0029899
-0.000225136 0.000182159 -0.0031489
-0.000201576 0.000162433 -0.0032714
-0.000108648 0.000118959 -0.0034594
-1.6729e-05 0.000123148 -0.00360513
-1.33134e-05 0.000176684 -0.00371206
1.03572e-06 0.000182219 -0.00373648
1.51459e-05 0.000182292 -0.00373302
1.80994e-05 0.000176839 -0.00370533
0.000108948 0.000123554 -0.00359262
0.000200422 0.000119395 -0.00344251
0.000222645 0.000162521 -0.00325197
0.000156334 0.000182039 -0.00312919
0.000174775 0.000150363 -0.00297084
0.000229959 9.31414e-05 -0.0026156
0.000250784 7.39557e-05 -0.00224983
0.000255503 5.77549e-05 -0.00187973
0.00025259 3.98593e-05 -0.00151116
0.000246246 1.96305e-05 -0.00114791
0.000211329 9.58209e-07 -0.000795064
0.000161641 -1.42064e-05 -0.000634898
0.000131456 -2.60762e-05 -0.000507197
0.000110965 -2.45589e-05 -0.000326621
9.30418e-05 -1.56403e-05 -0.000192511
8.31038e-05 -7.26993e-06 -8.88843e-05
0 0 0
-9.01475e-05 0 0
-0.00010133 1.70332e-05 -9.87251e-05
-0.000120107 3.60716e-05 -0.000217322
-0.000133718 6.10879e-05 -0.00038051
-0.000139608 0.000110223 -0.000623307
-0.000184605 0.000203874 -0.000824253
-0.00023342 0.000379277 -0.00107162
-0.000238858 0.00071852 -0.00160142
-0.000244005 0.000998398 -0.00212966
-0.000240471 0.00126112 -0.00265845
-0.000215773 0.00150793 -0.00318576
-0.000121137 0.00170862 -0.00370404
-9.53747e-05 0.00173521 -0.00421287
-0.000263692 0.00173326 -0.00444223
-0.000244295 0.00190808 -0.00461426
-0.000103908 0.00224761 -0.00488321
3.71473e-05 0.00234916 -0.00509519
-2.06159e-06 0.00221216 -0.00525496
1.13136e-06 0.0021989 -0.00528946
4.10274e-06 0.00219774 -0.00528483
-3.54801e-05 0.00220988 -0.00524593
0.000104284 0.00234463 -0.00507836
0.000242841 0.00224152 -0.00486066
0.000260838 0.00190157 -0.00458871
9.20579e-05 0.00172688 -0.00441647
0.000116522 0.00172871 -0.00418799
0.000209656 0.00170251 -0.00368311
0.000233439 0.00150303 -0.00317051
0.000236507 0.00125755 -0.00264974
0.000231383 0.000995745 -0.00212741
0.000226787 0.000715616 -0.00160455
0.000180295 0.000374364 -0.00107755
0.000137108 0.000198682 -0.000828793
0.000131961 0.00010547 -0.000626118
0.000118677 5.68755e-05 -0.000381488
0.000100114 3.29784e-05 -0.000217621
8.90414e-05 1.54093e-05 -9.87933e-05
0 0 0
-8.16532e-05 0 0
-9.17673e-05 4.33407e-05 -9.12924e-05
-0.000107417 9.15824e-05 -0.000202839
-0.000108734 0.000146998 -0.000362838
-4.52369e-05 0.000197457 -0.00062529
-8.2091e-06 0.000180255 -0.000917389
-6.27816e-05 0.000253263 -0.0012537
-9.79315e-05 0.000375383 -0.00195516
-0.000111684 0.000492055 -0.00260596
-0.000116139 0.000610819 -0.00325176
-0.00011455 0.00072939 -0.00389219
-0.000107037 0.000844142 -0.00451209
-9.65865e-05 0.000949996 -0.00508519
-8.81818e-05 0.000997218 -0.00534086
-7.3927e-05 0.00103994 -0.00557169
-5.26391e-05 0.00111047 -0.00595086
-3.09793e-05 0.00115981 -0.00621452
-1.50391e-05 0.00118845 -0.00636676
7.50728e-07 0.00119532 -0.00640317
1.63476e-05 0.0011944 -0.00639788
3.191e-05 0.00118664 -0.00635644
5.262e-05 0.00115641 -0.00619516
7.26351e-05 0.00110594 -0.00592502
8.58326e-05 0.00103489 -0.00554288
9.3536e-05 0.000992146 -0.005312
0.000102997 0.000945074 -0.00505722
0.000109445 0.000839965 -0.00448843
0.000110229 0.000726385 -0.00387514
0.000105179 0.000609222 -0.00324249
9.10241e-05 0.000491893 -0.00260461
5.61236e-05 0.000376371 -0.00196082
4.84553e-06 0.000254055 -0.00126386
4.39047e-05 0.00017765 -0.000921884
0.000107311 0.000192936 -0.00062727
0.000106174 0.000142344 -0.000363341
9.06976e-05 8.80919e-05 -0.000202907
8.06782e-05 4.15063e-05 -9.12661e-05
0 0 0
-5.99871e-05 0 0
-6.75796e-05 5.99606e-05 -6.71108e-05
-7.94895e-05 0.000127358 -0.000149317
-8.30136e-05 0.000206327 -0.000266598
-6.15537e-05 0.000288222 -0.000450038
6.87226e-05 0.000318045 -0.000611493
1.62216e-06 0.000280496 7.08982e-05
-3.65222e-05 0.000275292 0.000228799
-4.93509e-05 0.000309145 0.000342285
-5.40177e-05 0.000356079 0.000459101
-5.44908e-05 0.000407811 0.000572336
-5.16342e-05 0.00046015 0.000678838
-4.70912e-05 0.000509803 0.000774479
-4.33288e-05 0.000532438 0.000816259
-3.6773e-05 0.00055325 0.000853581
-2.64074e-05 0.000588503 0.000914113
-1.54382e-05 0.000613655 0.000956314
-7.19599e-06 0.00062811 0.000981508
9.97057e-07 0.000631319 0.000988114
9.03764e-06 0.000629752 0.000989517
1.69831e-05 0.000625054 0.000984246
2.72095e-05 0.000607923 0.000961456
3.65874e-05 0.000580847 0.000920986
4.23329e-05 0.000544666 0.000861287
4.55616e-05 0.000523792 0.000824018
4.93594e-05 0.000501356 0.000782064
5.14409e-05 0.00045282 0.000685474
5.04362e-05 0.000402293 0.000577509
4.54775e-05 0.000352748 0.000462569
3.26673e-05 0.000307973 0.00034405
-4.65551e-06 0.000275534 0.000229025
-6.92998e-05 0.000279358 6.99501e-05
5.96183e-05 0.000312665 -0.000609709
8.1762e-05 0.000282478 -0.000450157
7.85218e-05 0.000201093 -0.000266728
6.67823e-05 0.000123551 -0.000149312
5.92707e-05 5.79805e-05 -6.70769e-05
0 0 0
3.48526e-09 0 0
2.20602e-09 5.99603e-05 4.58128e-09
-1.33617e-09 0.000127357 9.25472e-09
-9.96122e-09 0.000206325 1.44132e-08
-3.28188e-08 0.000288219 2.14727e-08
-1.91307e-09 0.000318042 2.85914e-08
-7.68054e-09 0.000280496 1.29446e-08
-8.4255e-09 0.000275295 -1.45365e-09
-9.19847e-09 0.000309148 -8.95988e-10
-9.05897e-09 0.000356081 -3.81143e-10
-7.79933e-09 0.000407811 -3.1885e-11
-5.45539e-09 0.000460149 2.592e-10
-2.55648e-09 0.0005098 4.96098e-10
-1.98236e-10 0.000532435 5.7535e-10
2.99807e-09 0.000553246 6.02401e-10
6.91278e-09 0.000588499 5.96364e-10
1.07331e-08 0.000613651 5.21775e-10
1.34821e-08 0.000628106 3.87257e-10
1.60272e-08 0.000631315 2.9834e-10
1.8046e-08 0.000629749 9.14308e-11
1.98006e-08 0.000625051 -1.47548e-11
2.18641e-08 0.00060792 -2.15791e-10
2.32057e-08 0.000580845 -4.38444e-10
2.28811e-08 0.000544665 -7.01452e-10
2.1664e-08 0.000523791 -8.4534e-10
2.07134e-08 0.000501356 -8.99184e-10
2.01634e-08 0.000452819 -1.00685e-09
1.92135e-08 0.000402293 -1.14239e-09
1.77577e-08 0.000352747 -1.27133e-09
1.55787e-08 0.000307973 -1.42398e-09
1.20038e-08 0.000275536 -2.07401e-09
6.87476e-09 0.000279366 -7.82387e-09
-1.40814e-07 0.000312679 -1.76683e-08
-5.7347e-08 0.000282487 -3.53053e-10
-2.61362e-08 0.000201095 6.94309e-09
-1.35149e-08 0.000123551 6.25805e-09
-9.03041e-09 5.79806e-05 3.36505e-09
0 0 0
5.99937e-05 0 0
6.75835e-05 4.33403e-05 6.71196e-05
7.94861e-05 9.15817e-05 0.000149335
8.29919e-05 0.000146997 0.000266626
6.14886e-05 0.000197454 0.000450079
-6.87193e-05 0.000180235 0.000611548
-1.63353e-06 0.000253256 -7.0853e-05
3.65059e-05 0.000375383 -0.000228782
4.93322e-05 0.000492055 -0.000342271
5.39992e-05 0.000610817 -0.000459091
5.44748e-05 0.000729387 -0.00057233
5.16228e-05 0.000844138 -0.000678836
4.70858e-05 0.000949991 -0.000774481
4.3329e-05 0.000997211 -0.000816262
3.67799e-05 0.00103994 -0.000853586
2.64219e-05 0.00111046 -0.00091412
1.54603e-05 0.00115981 -0.000956323
7.22373e-06 0.00118845 -0.000981518
-9.64174e-07 0.00119532 -0.000988124
-9.00074e-06 0.0011944 -0.000989529
-1.69427e-05 0.00118664 -0.000984258
-2.71649e-05 0.00115641 -0.000961468
-3.65398e-05 0.00110594 -0.000920999
-4.2286e-05 0.00103489 -0.000861301
-4.55182e-05 0.000992152 -0.000824032
-4.93181e-05 0.000945078 -0.000782078
-5.14003e-05 0.000839968 -0.000685488
-5.03974e-05 0.000726389 -0.000577523
-4.54414e-05 0.000609226 -0.000462583
-3.26344e-05 0.000491898 -0.000344065
4.68569e-06 0.000376378 -0.000229041
6.93246e-05 0.000254074 -6.99752e-05
-5.991e-05 0.000177703 0.000609669
-8.18836e-05 0.00019293 0.000450152
-7.85757e-05 0.000142336 0.00026674
-6.68096e-05 8.80877e-05 0.000149324
-5.92888e-05 4.15046e-05 6.70834e-05
0 0 0
8.16595e-05 0 0
9.17711e-05 1.70329e-05 9.13008e-05
0.000107413 3.60722e-05 0.000202856
0.000108712 6.10934e-05 0.000362864
4.51551e-05 0.000110249 0.00062533
8.22719e-06 0.000203954 0.000917444
6.27753e-05 0.000379339 0.00125375
9.79169e-05 0.000718587 0.0019552
0.000111667 0.000998476 0.00260598
0.000116122 0.00126121 0.00325178
0.000114536 0.00150802 0.0038922
0.000107026 0.00170872 0.00451209
9.65817e-05 0.00173531 0.00508518
8.81849e-05 0.00173336 0.00534085
7.3936e-05 0.00190819 0.00557168
5.26553e-05 0.00224771 0.00595084
3.10029e-05 0.00234925 0.0062145
1.50684e-05 0.00221223 0.00636674
-7.1642e-07 0.00219896 0.00640315
-1.63094e-05 0.00219778 0.00639786
-3.18688e-05 0.0022099 0.00635642
-5.25744e-05 0.00234462 0.00619513
-7.25858e-05 0.00224148 0.00592499
-8.5783e-05 0.00190149 0.00554285
-9.34938e-05 0.00172678 0.00531197
-0.000102956 0.0017286 0.00505719
-0.000109404 0.00170236 0.0044884
-0.000110189 0.00150284 0.00387511
-0.000105142 0.00125733 0.00324246
-9.09903e-05 0.000995496 0.00260457
-5.60873e-05 0.000715343 0.00196078
-4.78725e-06 0.000374068 0.00126381
-4.42549e-05 0.000198329 0.000921835
-0.000107434 0.00010534 0.000627263
-0.000106226 5.68364e-05 0.000363353
-9.07236e-05 3.29647e-05 0.000202919
-8.06954e-05 1.54045e-05 9.12724e-05
0 0 0
9.01536e-05 0 0
0.000101334 -5.82297e-06 9.87327e-05
0.000120105 -1.28774e-05 0.000217337
0.000133706 -2.07475e-05 0.000380533
0.00013958 -2.16248e-05 0.000623339
0.000184605 -9.59822e-06 0.000824289
0.000233417 5.41861e-06 0.00107165
0.000238849 2.28795e-05 0.00160144
0.000243994 4.1926e-05 0.00212968
0.000240459 5.89226e-05 0.00265846
0.000215763 7.44887e-05 0.00318575
0.000121126 9.32853e-05 0.00370402
9.53684e-05 0.000150493 0.00421285
0.000263697 0.000182208 0.0044422
0.000244304 0.00016248 0.00461424
0.000103918 0.000119002 0.00488318
-3.71343e-05 0.000123186 0.00509516
2.07994e-06 0.000176717 0.00525493
-1.10923e-06 0.000182247 0.00528943
-4.07815e-06 0.00018231 0.0052848
3.55065e-05 0.00017685 0.00524591
-0.000104255 0.000123553 0.00507834
-0.000242808 0.000119379 0.00486064
-0.000260805 0.000162489 0.00458869
-9.20341e-05 0.000181999 0.00441645
-0.000116501 0.000150317 0.00418798
-0.000209632 9.30838e-05 0.0036831
-0.000233416 7.38856e-05 0.00317051
-0.000236485 5.76726e-05 0.00264973
-0.000231361 3.97654e-05 0.00212741
-0.000226762 1.9525e-05 0.00160454
-0.000180293 8.37572e-07 0.00107754
-0.000137235 -1.43297e-05 0.000828787
-0.000132038 -2.61544e-05 0.000626124
-0.000118716 -2.45917e-05 0.0003815
-0.000100136 -1.56541e-05 0.000217632
-8.90563e-05 -7.27507e-06 9.87991e-05
0 0 0
8.42215e-05 0 0
9.4281e-05 -2.01022e-05 8.86393e-05
0.00011246 -4.32029e-05 0.000191866
0.000133393 -7.14744e-05 0.000325222
0.000164525 -0.000104355 0.000504442
0.000215733 -0.000123529 0.000631515
0.000252139 -0.000150053 0.000791856
0.000259216 -0.000214838 0.00114704
0.000262313 -0.000279562 0.00151399
0.000257314 -0.000344562 0.00188704
0.000235774 -0.00040776 0.00226176
0.000179434 -0.000462612 0.00263165
0.00015978 -0.000490868 0.00298987
0.000225139 -0.000502911 0.00314887
0.000201581 -0.000538765 0.00327137
0.000108654 -0.000607375 0.00345937
1.67361e-05 -0.000635108 0.00360511
1.3323e-05 -0.000622291 0.00371203
-1.02413e-06 -0.000621091 0.00373646
-1.51331e-05 -0.00062049 0.003733
-1.80857e-05 -0.000621117 0.00370531
-0.000108934 -0.000632888 0.00359261
-0.000200405 -0.000604471 0.0034425
-0.000222628 -0.000535683 0.00325197
-0.000156322 -0.000499918 0.00312919
-0.000174765 -0.000488013 0.00297084
-0.000229948 -0.000460361 0.0026156
-0.000250773 -0.000406528 0.00224983
-0.000255493 -0.000344617 0.00187974
-0.00025258 -0.000281044 0.00151117
-0.000246236 -0.000217737 0.00114793
-0.000211332 -0.000154095 0.000795075
-0.000161678 -0.000127792 0.000634909
-0.000131488 -0.000108525 0.000507209
-0.000110985 -7.50127e-05 0.000326633
-9.30547e-05 -4.57579e-05 0.00019252
-8.31136e-05 -2.14389e-05 8.88887e-05
0 0 0
6.3915e-05 0 0
7.10612e-05 -2.93978e-05 6.58645e-05
8.42332e-05 -6.23787e-05 0.000140914
0.000100782 -0.00010193 0.000234023
0.000126633 -0.000149524 0.000352475
0.000163256 -0.000179517 0.000431256
0.000188058 -0.000218667 0.000530895
0.00019529 -0.000309363 0.000755188
0.000198147 -0.000403025 0.000990385
0.00019494 -0.000497805 0.00123163
0.000181694 -0.000590774 0.00147473
0.000151856 -0.000676521 0.00171436
0.000136273 -0.000745204 0.00194377
0.000153934 -0.000776064 0.00204482
0.000133352 -0.000814622 0.00212402
8.11201e-05 -0.000882661 0.00224518
2.95617e-05 -0.000921481 0.002338
1.55896e-05 -0.000931451 0.0024047
-7.0027e-07 -0.000934233 0.00242029
-1.68044e-05 -0.000933421 0.002418
-3.04133e-05 -0.000929872 0.00240027
-8.12513e-05 -0.000918546 0.00232976
-0.000132518 -0.000878751 0.002234
-0.00015211 -0.000810249 0.00211103
-0.00013359 -0.000771705 0.00203158
-0.000148276 -0.000741051 0.00193095
-0.000177356 -0.000673222 0.00170349
-0.000190137 -0.000588727 0.00146654
-0.00019319 -0.000497251 0.0012264
-0.000190503 -0.000404039 0.000988022
-0.000183764 -0.000311832 0.00075523
-0.000159888 -0.000222265 0.000532659
-0.000124322 -0.000183389 0.000433397
-9.92075e-05 -0.000153364 0.000354422
-8.30274e-05 -0.000105216 0.000235192
-7.00708e-05 -6.47629e-05 0.000141534
-6.30256e-05 -3.06482e-05 6.61246e-05
0 0 0
3.4234e-05 0 0
3.78646e-05 -3.39066e-05 3.49103e-05
4.45922e-05 -7.15026e-05 7.42006e-05
5.32631e-05 -0.000115934 0.000121896
6.68542e-05 -0.000169177 0.000180984
8.52434e-05 -0.000202649 0.000219244
9.77582e-05 -0.00024535 0.000267536
0.000102119 -0.000343364 0.000376913
0.000103906 -0.000445831 0.000492287
0.000102512 -0.000550134 0.000611111
9.64488e-05 -0.00065305 0.000730976
8.35929e-05 -0.000749868 0.000848919
7.48842e-05 -0.000833756 0.000961173
7.70831e-05 -0.000871304 0.00101044
6.54656e-05 -0.000909919 0.0010493
4.22865e-05 -0.000975428 0.00110874
1.94025e-05 -0.0010176 0.00115412
9.70179e-06 -0.00103672 0.00118649
-3.43203e-07 -0.00104136 0.00119411
-1.02892e-05 -0.00104048 0.00119298
-1.97968e-05 -0.001035 0.00118429
-4.23238e-05 -0.00101443 0.00115004
-6.5027e-05 -0.000971174 0.00110319
-7.61266e-05 -0.000905085 0.00104281
-7.34428e-05 -0.000866449 0.00100381
-8.16813e-05 -0.000829128 0.000954739
-9.41643e-05 -0.000746181 0.000843449
-0.000100001 -0.000650688 0.000726809
-0.000101328 -0.00054932 0.000608392
-9.96342e-05 -0.000446612 0.000490969
-9.55171e-05 -0.000345599 0.00037679
-8.34485e-05 -0.000248712 0.00026832
-6.55902e-05 -0.000206306 0.000220267
-5.23872e-05 -0.000172829 0.00018196
-4.39203e-05 -0.000119079 0.000122531
-3.73143e-05 -7.3793e-05 7.45581e-05
-3.37408e-05 -3.51103e-05 3.50669e-05
0 0 0
0 0 0
0 0 0
0 0 0
0 0 0
0 0 0
0 0 0
0 0 0
0 0 0
0 0 0
0 0 0
0 0 0
0 0 0
0 0 0
0 0 0
0 0 0
0 0 0
0 0 0
0 0 0
0 0 0
0 0 0
0 0 0
0 0 0
0 0 0
0 0 0
0 0 0
0 0 0
0 0 0
0 0 0
0 0 0
0 0 0
0 0 0
0 0 0
0 0 0
0 0 0
0 0 0
0 0 0
0 0 0
0 0 0
0 0 0
0 -0.000126982 0
0 -0.000269688 0
0 -0.000442317 0
0 -0.000655035 0
0 -0.000791846 0
0 -0.000964856 0
0 -0.00135816 0
0 -0.00177234 0
0 -0.0021977 0
0 -0.0026244 0
0 -0.00303965 0
0 -0.00342643 0
0 -0.00359694 0
0 -0.00374064 0
0 -0.0039671 0
0 -0.00413204 0
0 -0.00423856 0
0 -0.00426382 0
0 -0.00425999 0
0 -0.00423112 0
0 -0.00411829 0
0 -0.00394858 0
0 -0.00371942 0
0 -0.00357555 0
0 -0.00340608 0
0 -0.00302348 0
0 -0.00261389 0
0 -0.00219369 0
0 -0.00177494 0
0 -0.00136678 0
0 -0.000978181 0
0 -0.00080642 0
0 -0.000669566 0
0 -0.000454754 0
0 -0.000278721 0
0 -0.000131723 0
0 0 0
-0.000128683 0 0
-0.00014419 -0.000111728 -3.45244e-05
-0.000173715 -0.000240217 -7.41141e-05
-0.000213295 -0.000401733 -0.000123419
-0.000273798 -0.000609511 -0.00018581
-0.000345941 -0.000748927 -0.000226243
-0.000392877 -0.000926632 -0.000276811
-0.000413395 -0.00132763 -0.000392133
-0.000424382 -0.00174503 -0.000517103
-0.000425673 -0.00217056 -0.000650428
-0.000414338 -0.00259635 -0.000790873
-0.000386131 -0.00301053 -0.000936107
-0.000340673 -0.00339522 -0.00108202
-0.000287294 -0.00356577 -0.00114424
-0.000226736 -0.00371333 -0.00118315
-0.000165815 -0.0039484 -0.00122984
-0.000108023 -0.00411552 -0.00126714
-5.24752e-05 -0.00421813 -0.00130048
1.42319e-06 -0.00424243 -0.00130769
5.48833e-05 -0.00423861 -0.00130592
0.000109573 -0.00421072 -0.00129704
0.000165925 -0.00410181 -0.0012608
0.000224932 -0.00393005 -0.00122112
0.000283209 -0.00369252 -0.00117278
0.000334256 -0.0035449 -0.0011336
0.000377676 -0.00337538 -0.00107184
0.000404454 -0.00299481 -0.000927777
0.000414956 -0.0025863 -0.00078474
0.000413455 -0.00216709 -0.000646559
0.000402876 -0.00174835 -0.000515311
0.00038334 -0.00133721 -0.000392041
0.000338305 -0.000941111 -0.00027797
0.000268517 -0.000764592 -0.000227722
0.00020966 -0.000624993 -0.000187203
0.000170926 -0.000414854 -0.000124298
0.000141924 -0.000249689 -7.45997e-05
0.000126667 -0.000116683 -3.47346e-05
0 0 0
-0.000241948 0 0
-0.000273968 -8.02429e-05 -6.50463e-05
-0.000336061 -0.000178245 -0.000140723
-0.000421315 -0.000314353 -0.000237245
-0.000552416 -0.000511003 -0.00036267
-0.00070085 -0.000660471 -0.000445989
-0.000792989 -0.000850798 -0.00055062
-0.000829541 -0.00126908 -0.000788643
-0.000848458 -0.00168965 -0.00104583
-0.00084998 -0.00211057 -0.00132055
-0.000827159 -0.00252903 -0.00161183
-0.00076974 -0.00293527 -0.00191616
-0.000681007 -0.00331063 -0.00222471
-0.000581913 -0.00347882 -0.0023574
-0.000461727 -0.00363162 -0.00244199
-0.000333471 -0.00388093 -0.00254288
-0.00021183 -0.00405154 -0.00262032
-0.00010275 -0.00414706 -0.00268741
3.08656e-06 -0.00416974 -0.00270169
0.00010806 -0.00416609 -0.00269793
0.00021544 -0.00413995 -0.0026801
0.000334093 -0.00403831 -0.00260679
0.000458368 -0.00386341 -0.00252435
0.000574022 -0.00361225 -0.0024201
0.000668676 -0.00345963 -0.00233506
0.000753381 -0.00329238 -0.00220339
0.000807853 -0.00292082 -0.00189885
0.000828931 -0.00252011 -0.00159925
0.000826904 -0.00210825 -0.0013128
0.000808735 -0.00169437 -0.00104248
0.000774185 -0.00128057 -0.000788815
0.000686128 -0.000867738 -0.000553222
0.000542527 -0.000678359 -0.000449102
0.000414649 -0.00052833 -0.000365467
0.000330984 -0.00032876 -0.000238877
0.000269855 -0.000188534 -0.000141568
0.000238292 -8.5597e-05 -6.53966e-05
0 0 0
-0.000323435 0 0
-0.000372906 -3.16354e-05 -8.73198e-05
-0.00047253 -7.88817e-05 -0.000191458