<?xml version="1.0"?>
<VTKFile type="RectilinearGrid" version="0.1" byte_order="LittleEndian">
<RectilinearGrid WholeExtent="0 37 0 14 0 34">
<Piece Extent="0 37 0 14 0 34">
<PointData>
<DataArray type="Float32" Name="MVP" NumberOfComponents="3" format="ascii">
0 0 0
0 0 0
0 0 0
0 0 0
0 0 0
0 0 0
0 0 0
0 0 0
0 0 0
0 0 0
0 0 0
0 0 0
0 0 0
0 0 0
0 0 0
0 0 0
0 0 0
0 0 0
0 0 0
0 0 0
0 0 0
0 0 0
0 0 0
0 0 0
0 0 0
0 0 0
0 0 0
0 0 0
0 0 0
0 0 0
0 0 0
0 0 0
0 0 0
0 0 0
0 0 0
0 0 0
0 0 0
0 0 0
0 0 0
0 0 -3.40146e-05
0 0 -7.15843e-05
0 0 -0.000115714
0 0 -0.000168227
0 0 -0.000201161
0 0 -0.000243225
0 0 -0.00033941
0 0 -0.000439438
0 0 -0.000540954
0 0 -0.00064097
0 0 -0.000734905
0 0 -0.000815922
0 0 -0.000852186
0 0 -0.000889876
0 0 -0.000953828
0 0 -0.000994407
0 0 -0.00101193
0 0 -0.001016
0 0 -0.00101442
0 0 -0.00100886
0 0 -0.000988672
0 0 -0.000946046
0 0 -0.000880854
0 0 -0.000842974
0 0 -0.000806916
0 0 -0.000727061
0 0 -0.000634825
0 0 -0.000536765
0 0 -0.000437187
0 0 -0.000338852
0 0 -0.000243984
0 0 -0.000202297
0 0 -0.000169373
0 0 -0.000116492
0 0 -7.20305e-05
0 0 -3.42107e-05
0 0 0
0 0 0
0 0 -6.35207e-05
0 0 -0.000134013
0 0 -0.000217275
0 0 -0.000316372
0 0 -0.000378569
0 0 -0.000459075
0 0 -0.000643882
0 0 -0.00083472
0 0 -0.00102779
0 0 -0.00121745
0 0 -0.00139383
0 0 -0.00154012
0 0 -0.00160573
0 0 -0.00168104
0 0 -0.00181154
0 0 -0.00188924
0 0 -0.0019149
0 0 -0.00192115
0 0 -0.00191812
0 0 -0.001909
0 0 -0.00187822
0 0 -0.00179663
0 0 -0.00166388
0 0 -0.00158827
0 0 -0.00152305
0 0 -0.00137895
0 0 -0.00120587
0 0 -0.00102002
0 0 -0.000830735
0 0 -0.000643154
0 0 -0.000460779
0 0 -0.000380904
0 0 -0.00031862
0 0 -0.000218694
0 0 -0.000134777
0 0 -6.38413e-05
0 0 0
0 0 0
0 0 -8.37164e-05
0 0 -0.000177152
0 0 -0.000287907
0 0 -0.000417908
0 0 -0.000497716
0 0 -0.000603778
0 0 -0.000850545
0 0 -0.00110213
0 0 -0.00135582
0 0 -0.00160428
0 0 -0.00183116
0 0 -0.00200096
0 0 -0.00207646
0 0 -0.0021866
0 0 -0.00238423
0 0 -0.00248769
0 0 -0.00249808
0 0 -0.00250248
0 0 -0.0024984
0 0 -0.00249012
0 0 -0.00247273
0 0 -0.00236411
0 0 -0.00216377
0 0 -0.00205339
0 0 -0.00197835
0 0 -0.0018114
0 0 -0.00158906
0 0 -0.00134593
0 0 -0.00109755
0 0 -0.000850469
0 0 -0.000606767
0 0 -0.000501269
0 0 -0.000421024
0 0 -0.000289601
0 0 -0.000177946
0 0 -8.40145e-05
0 0 0
0 0 0
0 0 -8.95991e-05
0 0 -0.000189742
0 0 -0.000306817
0 0 -0.000433033
0 0 -0.000495663
0 0 -0.000584891
0 0 -0.000809349
0 0 -0.00103523
0 0 -0.00126491
0 0 -0.00149097
0 0 -0.00169245
0 0 -0.00179765
0 0 -0.00183791
0 0 -0.00196625
0 0 -0.00220512
0 0 -0.00230158
0 0 -0.00225509
0 0 -0.00225341
0 0 -0.0022493
0 0 -0.00224703
0 0 -0.0022862
0 0 -0.00218458
0 0 -0.00194362
0 0 -0.00181535
0 0 -0.00177537
0 0 -0.00167273
0 0 -0.00147604
0 0 -0.00125581
0 0 -0.00103204
0 0 -0.000811183
0 0 -0.000589591
0 0 -0.000500101
0 0 -0.000436211
0 0 -0.00030806
0 0 -0.000190118
0 0 -8.96706e-05
0 0 0
0 0 0
0 0 -8.10885e-05
0 0 -0.000171482
0 0 -0.00027493
0 0 -0.000371953
0 0 -0.000376398
0 0 -0.000376175
0 0 -0.000424437
0 0 -0.000503334
0 0 -0.000594559
0 0 -0.000690345
0 0 -0.000785527
0 0 -0.000874904
0 0 -0.000915253
0 0 -0.00095205
0 0 -0.00101346
0 0 -0.0010565
0 0 -0.00108081
0 0 -0.00108611
0 0 -0.00108317
0 0 -0.00107507
0 0 -0.00104573
0 0 -0.000999095
0 0 -0.000935966
0 0 -0.000899079
0 0 -0.000859139
0 0 -0.000771953
0 0 -0.000680312
0 0 -0.000588883
0 0 -0.000502317
0 0 -0.000427805
0 0 -0.000382358
0 0 -0.000381138
0 0 -0.000374628
0 0 -0.000275751
0 0 -0.000171615
0 0 -8.10533e-05
0 0 0
0 0 0
0 0 -5.95036e-05
0 0 -0.000125863
0 0 -0.000201679
0 0 -0.000273483
0 0 -0.00028576
0 0 -0.000244483
0 0 -0.000229914
0 0 -0.000249152
0 0 -0.000279757
0 0 -0.000315016
0 0 -0.000351572
0 0 -0.000386833
0 0 -0.000403045
0 0 -0.000418012
0 0 -0.000443456
0 0 -0.00046145
0 0 -0.000471393
0 0 -0.000473331
0 0 -0.000471196
0 0 -0.000467229
0 0 -0.000453639
0 0 -0.000433024
0 0 -0.000406315
0 0 -0.000391263
0 0 -0.000375325
0 0 -0.000341594
0 0 -0.000307539
0 0 -0.000275361
0 0 -0.000248003
0 0 -0.000231625
0 0 -0.000247403
0 0 -0.000287329
0 0 -0.000274844
0 0 -0.000202145
0 0 -0.000125921
0 0 -5.94643e-05
0 0 0
0 0 0
0 0 1.06903e-08
0 0 2.10096e-08
0 0 3.0299e-08
0 0 3.70694e-08
0 0 3.70409e-08
0 0 3.29554e-08
0 0 1.8185e-08
0 0 1.22576e-09
0 0 -1.78173e-08
0 0 -3.75507e-08
0 0 -5.63284e-08
0 0 -7.25651e-08
0 0 -7.89883e-08
0 0 -8.40166e-08
0 0 -9.01527e-08
0 0 -9.12187e-08
0 0 -8.7197e-08
0 0 -8.33318e-08
0 0 -7.21091e-08
0 0 -6.50431e-08
0 0 -4.83037e-08
0 0 -2.84462e-08
0 0 -6.3484e-09
0 0 4.77966e-09
0 0 1.54071e-08
0 0 3.60623e-08
0 0 5.6567e-08
0 0 7.6378e-08
0 0 9.4851e-08
0 0 1.11127e-07
0 0 1.23613e-07
0 0 1.2703e-07
0 0 7.52013e-08
0 0 3.32196e-08
0 0 1.46875e-08
0 0 5.65982e-09
0 0 0
0 0 0
0 0 5.95242e-05
0 0 0.000125904
0 0 0.000201737
0 0 0.000273553
0 0 0.000285832
0 0 0.00024455
0 0 0.000229955
0 0 0.000249159
0 0 0.000279723
0 0 0.000314941
0 0 0.000351458
0 0 0.000386684
0 0 0.000402882
0 0 0.000417839
0 0 0.000443271
0 0 0.000461263
0 0 0.000471214
0 0 0.000473159
0 0 0.000471047
0 0 0.000467095
0 0 0.000453538
0 0 0.000432964
0 0 0.0004063
0 0 0.000391272
0 0 0.000375354
0 0 0.000341665
0 0 0.000307652
0 0 0.000275513
0 0 0.000248193
0 0 0.000231849
0 0 0.000247659
0 0 0.000287597
0 0 0.000275003
0 0 0.000202213
0 0 0.000125951
0 0 5.94757e-05
0 0 0
0 0 0
0 0 8.11082e-05
0 0 0.00017152
0 0 0.000274984
0 0 0.000372018
0 0 0.00037646
0 0 0.000376242
0 0 0.00042448
0 0 0.000503343
0 0 0.000594527
0 0 0.000690269
0 0 0.00078541
0 0 0.000874751
0 0 0.000915086
0 0 0.000951873
0 0 0.00101327
0 0 0.00105631
0 0 0.00108063
0 0 0.00108594
0 0 0.00108302
0 0 0.00107494
0 0 0.00104563
0 0 0.000999034
0 0 0.000935952
0 0 0.000899089
0 0 0.00085917
0 0 0.000772025
0 0 0.000680425
0 0 0.000589037
0 0 0.000502509
0 0 0.000428032
0 0 0.000382623
0 0 0.000381434
0 0 0.000374787
0 0 0.000275817
0 0 0.000171644
0 0 8.10641e-05
0 0 0
0 0 0
0 0 8.96171e-05
0 0 0.000189777
0 0 0.000306867
0 0 0.000433093
0 0 0.000495724
0 0 0.000584951
0 0 0.000809393
0 0 0.00103525
0 0 0.0012649
0 0 0.00149093
0 0 0.00169238
0 0 0.00179755
0 0 0.0018378
0 0 0.00196613
0 0 0.002205
0 0 0.00230145
0 0 0.00225497
0 0 0.00225329
0 0 0.00224919
0 0 0.00224694
0 0 0.00228613
0 0 0.00218453
0 0 0.0019436
0 0 0.00181534
0 0 0.00177538
0 0 0.00167276
0 0 0.00147609
0 0 0.00125589
0 0 0.00103214
0 0 0.000811311
0 0 0.000589745
0 0 0.000500258
0 0 0.00043632
0 0 0.000308111
0 0 0.000190142
0 0 8.96799e-05
0 0 0
0 0 0
0 0 8.37304e-05
0 0 0.000177179
0 0 0.000287946
0 0 0.000417954
0 0 0.000497764
0 0 0.000603824
0 0 0.000850581
0 0 0.00110215
0 0 0.00135582
0 0 0.00160427
0 0 0.00183112
0 0 0.0020009
0 0 0.0020764
0 0 0.00218653
0 0 0.00238416
0 0 0.00248761
0 0 0.00249801
0 0 0.00250241
0 0 0.00249834
0 0 0.00249006
0 0 0.00247268
0 0 0.00236407
0 0 0.00216375
0 0 0.00205337
0 0 0.00197835
0 0 0.0018114
0 0 0.00158907
0 0 0.00134596
0 0 0.0010976
0 0 0.000850522
0 0 0.000606831
0 0 0.000501333
0 0 0.000421074
0 0 0.000289628
0 0 0.000177961
0 0 8.40203e-05
0 0 0
0 0 0
0 0 6.35301e-05
0 0 0.000134032
0 0 0.000217301
0 0 0.000316403
0 0 0.000378601
0 0 0.000459106
0 0 0.000643906
0 0 0.000834736
0 0 0.00102779
0 0 0.00121744
0 0 0.00139381
0 0 0.00154009
0 0 0.00160569
0 0 0.001681
0 0 0.0018115
0 0 0.0018892
0 0 0.00191485
0 0 0.0019211
0 0 0.00191808
0 0 0.00190896
0 0 0.00187819
0 0 0.0017966
0 0 0.00166387
0 0 0.00158826
0 0 0.00152304
0 0 0.00137895
0 0 0.00120587
0 0 0.00102003
0 0 0.000830752
0 0 0.000643176
0 0 0.000460806
0 0 0.000380931
0 0 0.000318642
0 0 0.000218707
0 0 0.000134785
0 0 6.38446e-05
0 0 0
0 0 0
0 0 3.40194e-05
0 0 7.15935e-05
0 0 0.000115726
0 0 0.000168243
0 0 0.000201177
0 0 0.00024324
0 0 0.000339423
0 0 0.000439446
0 0 0.000540957
0 0 0.000640967
0 0 0.000734897
0 0 0.000815908
0 0 0.00085217
0 0 0.000889858
0 0 0.000953809
0 0 0.000994388
0 0 0.00101191
0 0 0.00101599
0 0 0.00101441
0 0 0.00100884
0 0 0.000988658
0 0 0.000946035
0 0 0.000880846
0 0 0.000842968
0 0 0.000806911
0 0 0.000727059
0 0 0.000634826
0 0 0.000536769
0 0 0.000437193
0 0 0.00033886
0 0 0.000243994
0 0 0.000202307
0 0 0.000169382
0 0 0.000116498
0 0 7.20337e-05
0 0 3.42121e-05
0 0 0
0 0 0
0 0 0
0 0 0
0 0 0
0 0 0
0 0 0
0 0 0
0 0 0
0 0 0
0 0 0
0 0 0
0 0 0
0 0 0
0 0 0
0 0 0
0 0 0
0 0 0
0 0 0
0 0 0
0 0 0
0 0 0
0 0 0
0 0 0
0 0 0
0 0 0
0 0 0
0 0 0
0 0 0
0 0 0
0 0 0
0 0 0
0 0 0
0 0 0
0 0 0
0 0 0
0 0 0
0 0 0
0 0 0
0 0 0
0 -3.42761e-05 0
0 -7.23259e-05 0
0 -0.000117348 0
0 -0.0001713 0
0 -0.000205166 0
0 -0.000248294 0
0 -0.00034695 0
0 -0.000449711 0
0 -0.00055405 0
0 -0.000656846 0
0 -0.000753406 0
0 -0.000836796 0
0 -0.00087412 0
0 -0.000912777 0
0 -0.000978364 0
0 -0.00102013 0
0 -0.00103838 0
0 -0.00104264 0
0 -0.00104109 0
0 -0.00103536 0
0 -0.00101454 0
0 -0.000970857 0
0 -0.000904244 0
0 -0.00086554 0
0 -0.000828591 0
0 -0.000746788 0
0 -0.000652481 0
0 -0.000552327 0
0 -0.00045072 0
0 -0.000350474 0
0 -0.000253805 0
0 -0.000211226 0
0 -0.000177401 0
0 -0.000122661 0
0 -7.62253e-05 0
0 -3.63341e-05 0
0 0 0
-3.48309e-05 0 0
-3.84947e-05 -2.96588e-05 -3.52165e-05
-4.52638e-05 -6.29611e-05 -7.48561e-05
-5.39321e-05 -0.000102912 -0.000122983
-6.75066e-05 -0.000150923 -0.000182594
-8.58975e-05 -0.000181149 -0.000221145
-9.81172e-05 -0.000220705 -0.000269576
-0.000102049 -0.000311922 -0.000378604
-0.000103532 -0.000405559 -0.000493219
-0.000101972 -0.000499988 -0.000611062
-9.58e-05 -0.000592448 -0.000729917
-8.27699e-05 -0.000677535 -0.000846957
-7.41865e-05 -0.000745199 -0.000958481
-7.69728e-05 -0.000775606 -0.00100741
-6.54445e-05 -0.000814197 -0.00104587
-4.19292e-05 -0.000882384 -0.00110444
-1.87323e-05 -0.000920707 -0.00114896
-9.23944e-06 -0.000929559 -0.00118052
5.9267e-07 -0.000931924 -0.00118771
1.02543e-05 -0.000930501 -0.00118575
1.94147e-05 -0.00092679 -0.0011767
4.19932e-05 -0.000915553 -0.00114189
6.46848e-05 -0.000875517 -0.00109482
7.53275e-05 -0.000806517 -0.00103462
7.17255e-05 -0.000767942 -0.000995905
7.95122e-05 -0.00073787 -0.000947311
9.19074e-05 -0.000671631 -0.000837412
9.76931e-05 -0.000588659 -0.000722559
9.91262e-05 -0.000498731 -0.000606125
9.77737e-05 -0.000406971 -0.000490625
9.42184e-05 -0.000315838 -0.000378027
8.27205e-05 -0.000226612 -0.000270569
6.52184e-05 -0.000187578 -0.000222585
5.23118e-05 -0.000157357 -0.000184004
4.40081e-05 -0.000108486 -0.000123892
3.74626e-05 -6.70375e-05 -7.53609e-05
3.39053e-05 -3.1806e-05 -3.54344e-05
0 0 0
-6.49624e-05 0 0
-7.2143e-05 -2.014e-05 -6.64677e-05
-8.53245e-05 -4.3258e-05 -0.000142233
-0.000101743 -7.14003e-05 -0.000236299
-0.000127513 -0.000103682 -0.000356065
-0.000164413 -0.000122326 -0.000435723
-0.000188533 -0.000149122 -0.000535947
-0.000194706 -0.000213972 -0.000759558
-0.000196892 -0.000277727 -0.000993087
-0.000193355 -0.000341322 -0.00123223
-0.000179884 -0.000402985 -0.00147323
-0.000149582 -0.000456161 -0.00171105
-0.000134319 -0.000482078 -0.00193911
-0.0001536 -0.000493052 -0.00203955
-0.00013329 -0.000528857 -0.00211793
-8.02285e-05 -0.000597643 -0.00223731
-2.78976e-05 -0.000624585 -0.00232844
-1.45356e-05 -0.000610056 -0.00239359
1.20003e-06 -0.000608398 -0.00240834
1.66181e-05 -0.000607371 -0.00240438
2.93603e-05 -0.000608046 -0.00238589
8.04459e-05 -0.000620773 -0.00231416
0.000131839 -0.000592656 -0.00221793
0.000150463 -0.000523579 -0.0020954
0.000129757 -0.000487929 -0.00201658
0.000143507 -0.000477166 -0.00191683
0.000172519 -0.000452215 -0.00169207
0.000185199 -0.000400725 -0.00145873
0.000188453 -0.000341199 -0.00122268
0.000186497 -0.00027999 -0.000988318
0.000181072 -0.000218632 -0.000758835
0.000158431 -0.000155782 -0.000538215
0.0001233 -0.00012944 -0.000438744
9.88095e-05 -0.000110717 -0.000358874
8.30602e-05 -7.74522e-05 -0.000237959
7.02815e-05 -4.76624e-05 -0.000143091
6.3292e-05 -2.24534e-05 -6.68196e-05
0 0 0
-8.54282e-05 0 0
-9.54266e-05 -5.54758e-06 -8.95067e-05
-0.000113324 -1.21312e-05 -0.000193826
-0.000133457 -1.87909e-05 -0.000328842
-0.000163885 -1.61864e-05 -0.000510806
-0.000216879 -1.5686e-07 -0.000640261
-0.000252007 1.51136e-05 -0.000802792
-0.000256912 3.39761e-05 -0.00115688
-0.00025887 5.64365e-05 -0.00152085
-0.000253418 7.73768e-05 -0.00189042
-0.000231555 9.68908e-05 -0.00226189
-0.000174174 0.000119579 -0.00262916
-0.000155131 0.000181738 -0.00298575
-0.00022422 0.00021589 -0.00314406
-0.00020132 0.000196693 -0.00326531
-0.000106766 0.000153795 -0.00345054
-1.33299e-05 0.000159584 -0.00359383
-1.14567e-05 0.000215734 -0.00369872
1.71884e-06 0.000221627 -0.00372193
1.44949e-05 0.000221635 -0.00371593
1.56003e-05 0.000215775 -0.00368704
0.0001072 0.000159886 -0.00357214
0.000199248 0.000154011 -0.00342124
0.000219897 0.000196196 -0.00323158
0.000149299 0.000215002 -0.00310982
0.000166321 0.000180947 -0.0029526
0.00022174 0.000118864 -0.00260105
0.000242397 9.56127e-05 -0.00224068
0.000247347 7.51365e-05 -0.00187693
0.000245614 5.27895e-05 -0.00151481
0.000241782 2.84172e-05 -0.00115702
0.000208999 7.48426e-06 -0.000807001
0.000158601 -8.12263e-06 -0.000645064
0.000129851 -2.39241e-05 -0.000514783
0.000110529 -2.54503e-05 -0.00033079
9.31136e-05 -1.69718e-05 -0.000194679
8.33458e-05 -8.08597e-06 -8.9812e-05
0 0 0
-9.11238e-05 0 0
-0.000101949 1.75671e-05 -9.97845e-05
-0.000119499 3.74419e-05 -0.000219811
-0.000129719 6.47038e-05 -0.000385528
-0.00013007 0.000122404 -0.000633672
-0.000184205 0.000237733 -0.00084111
-0.00023072 0.00041417 -0.00109657
-0.000231928 0.000762445 -0.00162375
-0.000235402 0.00105307 -0.00214679
-0.000231441 0.00132694 -0.00267064
-0.000206541 0.00158457 -0.00319386
-0.00010991 0.00179445 -0.00370917
-8.4949e-05 0.00182363 -0.0042169
-0.000260905 0.00182236 -0.00444591
-0.000242783 0.00200444 -0.00461631
-9.99429e-05 0.00235768 -0.0048816
4.34424e-05 0.00246331 -0.00509072
6.42255e-07 0.00232097 -0.00524849
1.73555e-06 0.00230683 -0.00528144
2.47909e-06 0.00230445 -0.00527335
-4.08837e-05 0.00231628 -0.00523275
0.000100338 0.00245398 -0.0050614
0.000240074 0.00234516 -0.0048423
0.000255905 0.00199111 -0.00457171
7.9437e-05 0.00180929 -0.0044009
0.000102296 0.00181028 -0.00417335
0.000196394 0.00178171 -0.00367231
0.000219782 0.00157415 -0.00316649
0.000222936 0.00131914 -0.00265413
0.000219384 0.00104719 -0.00214097
0.000219311 0.000756499 -0.0016268
0.000176378 0.000405098 -0.00110437
0.000125453 0.000228221 -0.000847449
0.00012644 0.000113815 -0.000637556
0.000116827 5.71798e-05 -0.000386684
9.96803e-05 3.19445e-05 -0.000220036
8.90611e-05 1.46866e-05 -9.97717e-05
0 0 0
-8.23538e-05 0 0
-9.19004e-05 4.38369e-05 -9.22629e-05
-0.000105491 9.24267e-05 -0.000205123
-0.000100033 0.000147913 -0.000367589
-1.33088e-05 0.000198126 -0.000636432
-5.83151e-06 0.000182335 -0.000941164
-5.46402e-05 0.000260192 -0.00130091
-8.47371e-05 0.000381396 -0.00199397
-9.66398e-05 0.000497437 -0.00263713
-0.000100861 0.000615667 -0.00327793
-9.99375e-05 0.000733827 -0.00391498
-9.37904e-05 0.000848343 -0.00453266
-8.48267e-05 0.00095409 -0.00510437
-7.75233e-05 0.00100126 -0.00535946
-6.50344e-05 0.00104391 -0.00558969
-4.62235e-05 0.00111416 -0.00596725
-2.70587e-05 0.00116303 -0.00622836
-1.3007e-05 0.00119103 -0.0063772
8.68747e-07 0.00119757 -0.00641172
1.44537e-05 0.00119592 -0.00640244
2.7936e-05 0.00118783 -0.00635909
4.56683e-05 0.00115701 -0.00619438
6.25591e-05 0.00110613 -0.00592189
7.34532e-05 0.00103493 -0.00553904
7.97008e-05 0.000992249 -0.00530866
8.71695e-05 0.000945329 -0.00505503
9.16875e-05 0.000840846 -0.00449055
9.13415e-05 0.000728316 -0.00388394
8.61099e-05 0.000612527 -0.00325989
7.3406e-05 0.000496701 -0.00263219
4.33994e-05 0.000382571 -0.00200042
-2.86703e-07 0.000260992 -0.00131436
1.09006e-05 0.000177308 -0.000947456
9.74155e-05 0.000189776 -0.000639082
0.000103193 0.000139515 -0.000368041
8.99173e-05 8.61777e-05 -0.000205003
8.0544e-05 4.05623e-05 -9.21081e-05
0 0 0
-6.04152e-05 0 0
-6.74493e-05 6.03148e-05 -6.77556e-05
-7.72951e-05 0.000127366 -0.000150719
-7.39353e-05 0.000203611 -0.000268957
-2.72919e-05 0.000275309 -0.000453203
7.97065e-05 0.000287027 -0.00061122
1.22009e-05 0.000240841 0.000154435
-2.10447e-05 0.000221861 0.000327946
-3.20895e-05 0.000237986 0.00047598
-3.65618e-05 0.000265663 0.000628203
-3.77461e-05 0.000298062 0.000776286
-3.6376e-05 0.000331894 0.000916296
-3.35021e-05 0.000364674 0.00104273
-3.09952e-05 0.000379777 0.00109819
-2.648e-05 0.000393736 0.00114783
-1.90005e-05 0.000417489 0.00122855
-1.09182e-05 0.000434264 0.0012848
-4.82398e-06 0.000443471 0.00131817
1.21362e-06 0.000445221 0.00132677
7.03884e-06 0.000443071 0.00132804
1.27191e-05 0.000439277 0.00132066
1.97652e-05 0.000426396 0.00128947
2.58668e-05 0.00040698 0.0012348
2.92511e-05 0.00038195 0.00115484
3.10138e-05 0.000367902 0.00110525
3.28417e-05 0.000353066 0.00104964
3.31056e-05 0.000321803 0.00092238
3.11303e-05 0.000290441 0.000781086
2.61674e-05 0.000261027 0.000631511
1.50344e-05 0.000236287 0.000477805
-1.71401e-05 0.000221961 0.000328422
-8.09083e-05 0.000238302 0.000153714
2.38586e-05 0.000277227 -0.000609221
7.17254e-05 0.000264991 -0.000453484
7.55502e-05 0.000194256 -0.000269027
6.599e-05 0.00012057 -0.000150577
5.90955e-05 5.67809e-05 -6.76284e-05
0 0 0
1.26127e-08 0 0
1.22048e-08 6.03141e-05 1.20669e-08
1.10635e-08 0.000127365 2.42416e-08
8.26234e-09 0.000203608 3.66817e-08
9.84594e-10 0.000275306 4.97712e-08
-7.5277e-09 0.000287025 5.75794e-08
-1.44094e-08 0.000240843 1.23204e-08
-1.67368e-08 0.000221866 -2.02332e-09
-1.88939e-08 0.00023799 -1.1441e-09
-1.96349e-08 0.000265666 -5.48915e-10
-1.872e-08 0.000298062 -1.24702e-10
-1.62153e-08 0.000331892 2.37876e-10
-1.28495e-08 0.00036467 5.34071e-10
-1.00755e-08 0.000379773 6.38606e-10
-6.17645e-09 0.000393732 6.90994e-10
-1.12882e-09 0.000417484 7.26046e-10
3.94361e-09 0.000434259 6.79481e-10
7.6458e-09 0.000443466 5.63564e-10
1.11343e-08 0.000445216 4.81814e-10
1.40449e-08 0.000443066 2.85188e-10
1.66556e-08 0.000439273 1.82279e-10
1.97837e-08 0.000426392 -1.62347e-11
2.20366e-08 0.000406977 -2.3667e-10
2.22042e-08 0.000381948 -4.94168e-10
2.12086e-08 0.0003679 -6.35491e-10
2.0618e-08 0.000353065 -6.93053e-10
2.04787e-08 0.000321802 -8.0971e-10
1.97941e-08 0.000290441 -9.48417e-10
1.84628e-08 0.000261027 -1.07742e-09
1.62709e-08 0.000236287 -1.22151e-09
1.24868e-08 0.000221963 -1.80179e-09
6.84156e-09 0.000238311 -7.38754e-09
-1.0364e-07 0.000277242 -2.00644e-08
-4.19571e-08 0.000265 -6.18429e-09
-1.85043e-08 0.000194258 1.12088e-09
-8.99994e-09 0.00012057 2.14589e-09
-5.63195e-09 5.6781e-05 1.30112e-09
0 0 0
6.04396e-05 0 0
6.74729e-05 4.3835e-05 6.77789e-05
7.73163e-05 9.24226e-05 0.000150766
7.3951e-05 0.000147907 0.000269028
2.72977e-05 0.000198115 0.000453299
-7.97126e-05 0.000182316 0.000611329
-1.22251e-05 0.00026019 -0.000154389
2.10119e-05 0.000381402 -0.00032793
3.20514e-05 0.000497441 -0.000475967
3.6522e-05 0.000615668 -0.000628193
3.77081e-05 0.000733826 -0.00077628
3.63431e-05 0.000848339 -0.000916294
3.34762e-05 0.000954083 -0.00104273
3.09758e-05 0.00100125 -0.00109819
2.64686e-05 0.0010439 -0.00114784
1.89992e-05 0.00111415 -0.00122856
1.0927e-05 0.00116302 -0.00128481
4.84033e-06 0.00119103 -0.00131818
-1.19022e-06 0.00119756 -0.00132678
-7.00964e-06 0.00119592 -0.00132805
-1.26848e-05 0.00118782 -0.00132067
-1.97245e-05 0.00115701 -0.00128949
-2.58212e-05 0.00110613 -0.00123481
-2.92052e-05 0.00103494 -0.00115486
-3.0971e-05 0.000992253 -0.00110527
-3.28004e-05 0.000945331 -0.00104966
-3.30642e-05 0.000840848 -0.000922393
-3.10901e-05 0.000728318 -0.000781099
-2.61297e-05 0.00061253 -0.000631524
-1.5e-05 0.000496706 -0.000477819
1.71716e-05 0.000382578 -0.000328437
8.09335e-05 0.000261011 -0.000153739
-2.40776e-05 0.000177362 0.000609176
-7.18158e-05 0.000189776 0.000453468
-7.55888e-05 0.00013951 0.000269028
-6.60084e-05 8.6175e-05 0.000150581
-5.91069e-05 4.05613e-05 6.7631e-05
0 0 0
8.23771e-05 0 0
9.19228e-05 1.7564e-05 9.22851e-05
0.000105511 3.74358e-05 0.000205168
0.000100047 6.46951e-05 0.000367655
1.33071e-05 0.000122396 0.000636522
5.84545e-06 0.000237732 0.000941269
5.46223e-05 0.000414157 0.001301
8.47064e-05 0.000762445 0.00199405
9.66034e-05 0.00105309 0.00263718
0.000100823 0.00132699 0.00327797
9.99013e-05 0.00158464 0.00391499
9.37588e-05 0.00179454 0.00453266
8.48018e-05 0.00182373 0.00510435
7.75073e-05 0.00182246 0.00535943
6.50258e-05 0.00200456 0.00558966
4.62243e-05 0.0023578 0.00596721
2.70696e-05 0.00246344 0.00622832
1.30254e-05 0.00232108 0.00637715
-8.43355e-07 0.00230693 0.00641167
-1.44226e-05 0.00230454 0.00640239
-2.79003e-05 0.00231636 0.00635904
-4.56261e-05 0.00245403 0.00619433
-6.25112e-05 0.00234519 0.00592184
-7.3404e-05 0.0019911 0.00553899
-7.9659e-05 0.00180926 0.00530862
-8.71284e-05 0.00181024 0.00505499
-9.16454e-05 0.00178163 0.00449051
-9.13007e-05 0.00157404 0.0038839
-8.60715e-05 0.001319 0.00325985
-7.33704e-05 0.00104701 0.00263215
-4.33614e-05 0.000756299 0.00200037
3.47236e-07 0.000404873 0.00131431
-1.11739e-05 0.000227944 0.000947401
-9.75085e-05 0.000113715 0.000639064
-0.000103231 5.71509e-05 0.000368042
-8.99349e-05 3.19348e-05 0.000205007
-8.05548e-05 1.46834e-05 9.21105e-05
0 0 0
9.11454e-05 0 0
0.00010197 -5.55166e-06 9.98048e-05
0.000119517 -1.21391e-05 0.000219851
0.000129733 -1.88022e-05 0.000385588
0.000130076 -1.61993e-05 0.00063375
0.000184208 -1.69243e-07 0.000841194
0.00023071 1.51004e-05 0.00109665
0.000231909 3.39683e-05 0.00162382
0.000235378 5.64381e-05 0.00214683
0.000231415 7.73896e-05 0.00267067
0.000206516 9.69152e-05 0.00319387
0.000109885 0.000119615 0.00370916
8.49294e-05 0.000181785 0.00421687
0.000260898 0.000215942 0.00444587
0.000242782 0.000196746 0.00461627
9.99441e-05 0.00015385 0.00488155
-4.34381e-05 0.00015964 0.00509066
-6.30644e-07 0.000215788 0.00524843
-1.71857e-06 0.000221678 0.00528138
-2.45801e-06 0.00022168 0.0052733
4.0909e-05 0.000215814 0.0052327
-0.000100311 0.000159914 0.00506136
-0.000240044 0.000154026 0.00484225
-0.000255874 0.000196196 0.00457167
-7.94106e-05 0.000214995 0.00440086
-0.000102272 0.000180933 0.00417332
-0.000196368 0.000118838 0.00367228
-0.000219757 9.55743e-05 0.00316647
-0.000222913 7.50855e-05 0.00265411
-0.000219361 5.27266e-05 0.00214096
-0.000219285 2.83426e-05 0.00162678
-0.00017637 7.3948e-06 0.00110435
-0.00012555 -8.2161e-06 0.000847431
-0.000126498 -2.39827e-05 0.000637549
-0.000116855 -2.54741e-05 0.000386687
-9.96946e-05 -1.69813e-05 0.000220039
-8.90703e-05 -8.08942e-06 9.97739e-05
0 0 0
8.54451e-05 0 0
9.5443e-05 -2.01446e-05 8.95222e-05
0.000113339 -4.3267e-05 0.000193857
0.000133468 -7.14131e-05 0.000328886
0.000163892 -0.000103697 0.000510862
0.00021688 -0.000122342 0.000640319
0.000252002 -0.000149138 0.000802849
0.000256902 -0.000213984 0.00115693
0.000258857 -0.000277732 0.00152088
0.000253404 -0.000341319 0.00189044
0.000231541 -0.000402975 0.00226189
0.000174161 -0.000456142 0.00262914
0.000155121 -0.000482052 0.00298572
0.000224216 -0.000493023 0.00314403
0.00020132 -0.000528827 0.00326527
0.000106768 -0.000597611 0.00345049
1.3333e-05 -0.000624552 0.00359379
1.14634e-05 -0.000610023 0.00369867
-1.70919e-06 -0.000608367 0.00372189
-1.44831e-05 -0.000607343 0.00371588
-1.55865e-05 -0.000608021 0.003687
-0.000107185 -0.000620754 0.0035721
-0.000199232 -0.000592643 0.0034212
-0.000219881 -0.000523574 0.00323155
-0.000149285 -0.000487928 0.00310979
-0.000166309 -0.000477168 0.00295258
-0.000221727 -0.000452223 0.00260103
-0.000242384 -0.000400738 0.00224067
-0.000247336 -0.000341219 0.00187692
-0.000245603 -0.000280016 0.00151481
-0.000241771 -0.000218663 0.00115702
-0.000208998 -0.000155819 0.000807
-0.000158628 -0.000129476 0.000645064
-0.000129874 -0.000110745 0.000514785
-0.000110542 -7.74661e-05 0.000330794
-9.31218e-05 -4.76689e-05 0.000194683
-8.33516e-05 -2.2456e-05 8.98138e-05
0 0 0
6.4974e-05 0 0
7.21542e-05 -2.96637e-05 6.6478e-05
8.53346e-05 -6.29706e-05 0.000142254
0.000101751 -0.000102925 0.000236328
0.000127518 -0.000150939 0.0003561
0.000164414 -0.000181165 0.00043576
0.00018853 -0.000220722 0.000535983
0.000194701 -0.000311935 0.000759588
0.000196885 -0.000405567 0.000993108
0.000193348 -0.000499989 0.00123224
0.000179877 -0.000592443 0.00147323
0.000149576 -0.000677524 0.00171103
0.000134314 -0.00074518 0.00193909
0.000153599 -0.000775585 0.00203952
0.00013329 -0.000814174 0.0021179
8.023e-05 -0.000882361 0.00223728
2.78999e-05 -0.000920682 0.00232841
1.45397e-05 -0.000929535 0.00239356
-1.19445e-06 -0.000931901 0.00240831
-1.66115e-05 -0.000930479 0.00240435
-2.93527e-05 -0.00092677 0.00238587
-8.0438e-05 -0.000915537 0.00231413
-0.00013183 -0.000875505 0.0022179
-0.000150455 -0.000806509 0.00209538
-0.00012975 -0.000767937 0.00201656
-0.0001435 -0.000737866 0.00191682
-0.000172512 -0.000671632 0.00169206
-0.000185193 -0.000588663 0.00145872
-0.000188447 -0.000498739 0.00122267
-0.000186492 -0.000406981 0.000988317
-0.000181067 -0.000315851 0.000758836
-0.00015843 -0.000226629 0.000538217
-0.000123308 -0.000187595 0.000438747
-9.88184e-05 -0.000157371 0.000358877
-8.30664e-05 -0.000108495 0.000237962
-7.02858e-05 -6.70418e-05 0.000143094
-6.32952e-05 -3.18078e-05 6.68208e-05
0 0 0
3.48368e-05 0 0
3.85003e-05 -3.42811e-05 3.52216e-05
4.52689e-05 -7.23356e-05 7.48661e-05
5.39363e-05 -0.000117361 0.000122997
6.75093e-05 -0.000171316 0.000182611
8.58983e-05 -0.000205183 0.000221164
9.81162e-05 -0.00024831 0.000269593
0.000102047 -0.000346963 0.000378618
0.000103529 -0.000449719 0.000493229
0.000101969 -0.000554053 0.000611067
9.57967e-05 -0.000656842 0.000729916
8.27669e-05 -0.000753396 0.000846951
7.41844e-05 -0.00083678 0.00095847
7.69722e-05 -0.000874102 0.0010074
6.54449e-05 -0.000912757 0.00104586
4.19301e-05 -0.000978342 0.00110443
1.87336e-05 -0.00102011 0.00114895
9.24145e-06 -0.00103836 0.0011805
-5.90043e-07 -0.00104262 0.0011877
-1.02512e-05 -0.00104107 0.00118574
-1.94113e-05 -0.00103535 0.00117669
-4.19896e-05 -0.00101452 0.00114188
-6.46811e-05 -0.000970846 0.00109481
-7.53239e-05 -0.000904236 0.00103461
-7.17222e-05 -0.000865533 0.000995897
-7.95092e-05 -0.000828586 0.000947305
-9.19046e-05 -0.000746785 0.000837407
-9.76904e-05 -0.000652481 0.000722556
-9.91238e-05 -0.00055233 0.000606123
-9.77715e-05 -0.000450726 0.000490625
-9.42165e-05 -0.000350482 0.000378028
-8.27203e-05 -0.000253815 0.000270571
-6.52208e-05 -0.000211236 0.000222587
-5.23149e-05 -0.000177409 0.000184006
-4.40105e-05 -0.000122667 0.000123893
-3.74643e-05 -7.62285e-05 7.5362e-05
-3.39067e-05 -3.63356e-05 3.5435e-05
0 0 0
0 0 0
0 0 0
0 0 0
0 0 0
0 0 0
0 0 0
0 0 0
0 0 0
0 0 0
0 0 0
0 0 0
0 0 0
0 0 0
0 0 0
0 0 0
0 0 0
0 0 0
0 0 0
0 0 0
0 0 0
0 0 0
0 0 0
0 0 0
0 0 0
0 0 0
0 0 0
0 0 0
0 0 0
0 0 0
0 0 0
0 0 0
0 0 0
0 0 0
0 0 0
0 0 0
0 0 0
0 0 0
0 0 0
0 0 0
0 -0.000128347 0
0 -0.000272929 0
0 -0.000448378 0
0 -0.000665065 0
0 -0.000804281 0
0 -0.000979504 0
0 -0.00137582 0
0 -0.00179188 0
0 -0.00221839 0
0 -0.00264594 0
0 -0.00306198 0
0 -0.00344944 0
0 -0.00362021 0
0 -0.00376413 0
0 -0.00399045 0
0 -0.0041542 0
0 -0.00425853 0
0 -0.00428247 0
0 -0.00427569 0
0 -0.00424537 0
0 -0.00412988 0
0 -0.00395771 0
0 -0.0037266 0
0 -0.00358235 0
0 -0.00341333 0
0 -0.00303302 0
0 -0.00262668 0
0 -0.00221026 0
0 -0.0017951 0
0 -0.00138943 0
0 -0.00100143 0
0 -0.000828539 0
0 -0.000689456 0
0 -0.000469491 0
0 -0.000288378 0
0 -0.000136489 0
0 0 0
-0.000131319 0 0
-0.000147149 -0.000112784 -3.48095e-05
-0.000177273 -0.000242898 -7.47142e-05
-0.000217558 -0.000407172 -0.000124384
-0.000278555 -0.000619323 -0.000187172
-0.00035009 -0.000761833 -0.000227849
-0.000395293 -0.000942651 -0.00027859
-0.000414387 -0.0013468 -0.000393701
-0.000424439 -0.0017655 -0.000518052
-0.000425374 -0.00219148 -0.000650571
-0.000414068 -0.00261756 -0.000790277
-0.000385973 -0.00303215 -0.000935055
-0.000340632 -0.00341731 -0.00108091
-0.000287386 -0.00358807 -0.00114316
-0.000226592 -0.00373583 -0.00118191
-0.000165152 -0.00397073 -0.00122787
-0.000106911 -0.00413661 -0.00126429
-5.1327e-05 -0.004237 -0.00129663
2.477e-06 -0.00425997 -0.00130326
5.55152e-05 -0.00425323 -0.00130019
0.000109601 -0.0042239 -0.00129068
0.000165338 -0.00411236 -0.0012533
0.000223457 -0.00393826 -0.0012128
0.000280316 -0.003699 -0.001164
0.000329559 -0.00355111 -0.00112481
0.00037143 -0.00338208 -0.00106337
0.000397117 -0.00300394 -0.000920704
0.000407018 -0.00259905 -0.000779646
0.000405691 -0.0021842 -0.000643731
0.000396232 -0.00176983 -0.000514673
0.000378655 -0.0013619 -0.000393168
0.000336512 -0.000966429 -0.000280199
0.000268949 -0.000787935 -0.00023005
0.000210826 -0.00064539 -0.000189277
0.000172064 -0.000429542 -0.000125697
0.000142902 -0.000259171 -7.54294e-05
0.000127536 -0.000121334 -3.5115e-05
0 0 0
-0.000246772 0 0
-0.000279468 -8.06456e-05 -6.56199e-05
-0.000342902 -0.000179651 -0.000141949
-0.000429966 -0.000318152 -0.000239274
-0.000562979 -0.000519774 -0.000365671
-0.000710592 -0.000674183 -0.00044969
-0.000797576 -0.000870873 -0.000554935
-0.000830546 -0.00129214 -0.000792535
-0.000847481 -0.00171227 -0.0010483
-0.000848429 -0.00213203 -0.00132121
-0.000825856 -0.00254963 -0.00161087
-0.000768857 -0.00295554 -0.00191425
-0.000680495 -0.003331 -0.0022228
-0.000581717 -0.00349932 -0.00235572
-0.000461095 -0.0036522 -0.00244013
-0.000331831 -0.00390116 -0.0025397
-0.000209338 -0.00407048 -0.00261531
-0.000100231 -0.00416385 -0.00268027
5.37795e-06 -0.00418526 -0.00269328
0.000109481 -0.00417879 -0.00268675
0.000215625 -0.00415126 -0.00266759
0.000332922 -0.00404705 -0.00259188
0.000455283 -0.00387011 -0.00250765
0.00056809 -0.00361785 -0.00240231
0.000659257 -0.00346522 -0.00231715
0.000740777 -0.00329851 -0.00218606
0.000792828 -0.00292951 -0.00188443
0.000812475 -0.00253299 -0.00158906
0.00081061 -0.00212657 -0.00130748
0.000794733 -0.00171873 -0.00104187
0.000764787 -0.00131015 -0.000791991
0.000684238 -0.000898512 -0.000558555
0.000544831 -0.00070408 -0.000454312
0.00041754 -0.000549167 -0.000369887
0.000333388 -0.000342935 -0.000241692
0.000271754 -0.000197483 -0.000143174
0.000239916 -8.99581e-05 -6.61168e-05
0 0 0
-0.000329546 0 0
-0.000380031 -3.10383e-05 -8.81728e-05
-0.000481891 -7.81262e-05 -0.000193317
-0.000630677 -0.000166472 -0.000333242