<?xml version="1.0"?>
<VTKFile type="RectilinearGrid" version="0.1" byte_order="LittleEndian">
<RectilinearGrid WholeExtent="0 37 0 14 0 34">
<Piece Extent="0 37 0 14 0 34">
<PointData>
<DataArray type="Float32" Name="MVP" NumberOfComponents="3" format="ascii">
0 0 0
0 0 0
0 0 0
0 0 0
0 0 0
0 0 0
0 0 0
0 0 0
0 0 0
0 0 0
0 0 0
0 0 0
0 0 0
0 0 0
0 0 0
0 0 0
0 0 0
0 0 0
0 0 0
0 0 0
0 0 0
0 0 0
0 0 0
0 0 0
0 0 0
0 0 0
0 0 0
0 0 0
0 0 0
0 0 0
0 0 0
0 0 0
0 0 0
0 0 0
0 0 0
0 0 0
0 0 0
0 0 0
0 0 0
0 0 4.47204e-05
0 0 9.43445e-05
0 0 0.000153187
0 0 0.000224256
0 0 0.000269461
0 0 0.000327521
0 0 0.000462362
0 0 0.000605572
0 0 0.000752982
0 0 0.00089935
0 0 0.00103782
0 0 0.00115946
0 0 0.00121335
0 0 0.00126578
0 0 0.00135284
0 0 0.00141007
0 0 0.00143809
0 0 0.00144452
0 0 0.00144205
0 0 0.00143328
0 0 0.00140112
0 0 0.0013407
0 0 0.0012517
0 0 0.00119898
0 0 0.00114542
0 0 0.0010256
0 0 0.000889785
0 0 0.00074646
0 0 0.000602058
0 0 0.000461476
0 0 0.000328691
0 0 0.000271227
0 0 0.000226041
0 0 0.000154403
0 0 9.5044e-05
0 0 4.50286e-05
0 0 0
0 0 0
0 0 8.37995e-05
0 0 0.000177421
0 0 0.000289521
0 0 0.000425779
0 0 0.000512611
0 0 0.000624376
0 0 0.000885306
0 0 0.00116221
0 0 0.00144711
0 0 0.00172945
0 0 0.0019946
0 0 0.00222144
0 0 0.00232207
0 0 0.00242718
0 0 0.00260484
0 0 0.0027161
0 0 0.00276229
0 0 0.00277317
0 0 0.00276844
0 0 0.00275308
0 0 0.0026989
0 0 0.00258158
0 0 0.00240044
0 0 0.00229486
0 0 0.00219485
0 0 0.00197145
0 0 0.00171145
0 0 0.00143506
0 0 0.00115602
0 0 0.00088417
0 0 0.000627033
0 0 0.000516272
0 0 0.00042931
0 0 0.000291756
0 0 0.000178629
0 0 8.43085e-05
0 0 0
0 0 0
0 0 0.000111239
0 0 0.000236899
0 0 0.000389755
0 0 0.000577099
0 0 0.00069566
0 0 0.000845676
0 0 0.00120187
0 0 0.00158087
0 0 0.00197149
0 0 0.00235789
0 0 0.00271621
0 0 0.00300412
0 0 0.00313114
0 0 0.00328657
0 0 0.00355698
0 0 0.00371116
0 0 0.00375103
0 0 0.00376217
0 0 0.00375581
0 0 0.0037386
0 0 0.00368784
0 0 0.00352562
0 0 0.00325105
0 0 0.00309525
0 0 0.00296899
0 0 0.00268556
0 0 0.00233434
0 0 0.00195628
0 0 0.00157391
0 0 0.00120188
0 0 0.000850454
0 0 0.000701359
0 0 0.000582099
0 0 0.000392484
0 0 0.000238188
0 0 0.000111727
0 0 0
0 0 0
0 0 0.000120632
0 0 0.000258818
0 0 0.000430305
0 0 0.000641234
0 0 0.000769161
0 0 0.000905225
0 0 0.00125987
0 0 0.0016491
0 0 0.00205646
0 0 0.0024609
0 0 0.0028314
0 0 0.00308617
0 0 0.00319177
0 0 0.00338082
0 0 0.00371927
0 0 0.00388327
0 0 0.00387309
0 0 0.00388017
0 0 0.00387376
0 0 0.00386055
0 0 0.00385936
0 0 0.00368738
0 0 0.00334576
0 0 0.00315688
0 0 0.00305178
0 0 0.0028011
0 0 0.00243817
0 0 0.00204288
0 0 0.00164478
0 0 0.00126333
0 0 0.000913121
0 0 0.000776725
0 0 0.000646656
0 0 0.000432478
0 0 0.000259519
0 0 0.000120791
0 0 0
0 0 0
0 0 0.000110102
0 0 0.000237297
0 0 0.000397775
0 0 0.000599508
0 0 0.000726184
0 0 0.000745365
0 0 0.00091831
0 0 0.0011714
0 0 0.00145344
0 0 0.0017404
0 0 0.00201711
0 0 0.00226986
0 0 0.00238218
0 0 0.00248375
0 0 0.00265166
0 0 0.00276919
0 0 0.00283675
0 0 0.00285238
0 0 0.00284783
0 0 0.00282787
0 0 0.00275257
0 0 0.00262953
0 0 0.0024591
0 0 0.00235748
0 0 0.00224589
0 0 0.00199678
0 0 0.00172582
0 0 0.00144588
0 0 0.00117126
0 0 0.000925027
0 0 0.000756312
0 0 0.000735003
0 0 0.000604472
0 0 0.000399404
0 0 0.000237663
0 0 0.00011011
0 0 0
0 0 0
0 0 8.11795e-05
0 0 0.000175696
0 0 0.000297506
0 0 0.00046142
0 0 0.00059758
0 0 0.000579603
0 0 0.000675726
0 0 0.000848082
0 0 0.00104702
0 0 0.00125124
0 0 0.00144852
0 0 0.00162871
0 0 0.00170885
0 0 0.00178143
0 0 0.00190175
0 0 0.00198628
0 0 0.00203501
0 0 0.0020463
0 0 0.00204305
0 0 0.00202867
0 0 0.0019744
0 0 0.00188594
0 0 0.00176383
0 0 0.00169121
0 0 0.00161158
0 0 0.00143398
0 0 0.00124081
0 0 0.00104159
0 0 0.000847866
0 0 0.000679992
0 0 0.000585604
0 0 0.000601524
0 0 0.000464447
0 0 0.000298637
0 0 0.000175967
0 0 8.11891e-05
0 0 0
0 0 0
0 0 -4.31447e-08
0 0 -9.45141e-08
0 0 -1.69006e-07
0 0 -3.01037e-07
0 0 -4.4616e-07
0 0 -4.34386e-07
0 0 -3.95033e-07
0 0 -3.43904e-07
0 0 -2.83215e-07
0 0 -2.15661e-07
0 0 -1.44186e-07
0 0 -7.15786e-08
0 0 -3.5716e-08
0 0 -4.74634e-10
0 0 6.76873e-08
0 0 1.3146e-07
0 0 1.90025e-07
0 0 2.17205e-07
0 0 2.67276e-07
0 0 2.90152e-07
0 0 3.3165e-07
0 0 3.68006e-07
0 0 3.99592e-07
0 0 4.13618e-07
0 0 4.26398e-07
0 0 4.48676e-07
0 0 4.67445e-07
0 0 4.8313e-07
0 0 4.96013e-07
0 0 5.06181e-07
0 0 5.13346e-07
0 0 5.14902e-07
0 0 3.15714e-07
0 0 1.53173e-07
0 0 7.54148e-08
0 0 3.16539e-08
0 0 0
0 0 0
0 0 -8.12642e-05
0 0 -0.000175882
0 0 -0.000297841
0 0 -0.000462026
0 0 -0.00059848
0 0 -0.000580482
0 0 -0.000676527
0 0 -0.000848778
0 0 -0.00104759
0 0 -0.00125168
0 0 -0.00144881
0 0 -0.00162885
0 0 -0.00170892
0 0 -0.00178143
0 0 -0.00190161
0 0 -0.00198601
0 0 -0.00203462
0 0 -0.00204586
0 0 -0.00204251
0 0 -0.00202808
0 0 -0.00197373
0 0 -0.0018852
0 0 -0.00176302
0 0 -0.00169038
0 0 -0.00161072
0 0 -0.00143308
0 0 -0.00123987
0 0 -0.00104062
0 0 -0.000846873
0 0 -0.000678977
0 0 -0.000584574
0 0 -0.000600489
0 0 -0.000463807
0 0 -0.00029833
0 0 -0.000175817
0 0 -8.11263e-05
0 0 0
0 0 0
0 0 -0.000110183
0 0 -0.000237474
0 0 -0.000398093
0 0 -0.000600089
0 0 -0.00072709
0 0 -0.000746252
0 0 -0.00091912
0 0 -0.0011721
0 0 -0.00145402
0 0 -0.00174084
0 0 -0.0020174
0 0 -0.00227
0 0 -0.00238225
0 0 -0.00248375
0 0 -0.00265152
0 0 -0.00276892
0 0 -0.00283636
0 0 -0.00285194
0 0 -0.00284728
0 0 -0.00282728
0 0 -0.00275189
0 0 -0.00262878
0 0 -0.0024583
0 0 -0.00235664
0 0 -0.00224504
0 0 -0.00199587
0 0 -0.00172488
0 0 -0.00144491
0 0 -0.00117027
0 0 -0.000924012
0 0 -0.000755279
0 0 -0.000733959
0 0 -0.000603858
0 0 -0.000399114
0 0 -0.000237521
0 0 -0.00011005
0 0 0
0 0 0
0 0 -0.000120705
0 0 -0.000258973
0 0 -0.000430574
0 0 -0.000641679
0 0 -0.000769733
0 0 -0.000905806
0 0 -0.00126039
0 0 -0.00164956
0 0 -0.00205683
0 0 -0.00246117
0 0 -0.00283158
0 0 -0.00308625
0 0 -0.00319181
0 0 -0.00338081
0 0 -0.00371917
0 0 -0.00388309
0 0 -0.00387283
0 0 -0.00387987
0 0 -0.0038734
0 0 -0.00386017
0 0 -0.00385894
0 0 -0.00368691
0 0 -0.00334524
0 0 -0.00315632
0 0 -0.00305122
0 0 -0.00280054
0 0 -0.00243759
0 0 -0.00204229
0 0 -0.00164417
0 0 -0.00126271
0 0 -0.000912483
0 0 -0.000776112
0 0 -0.00064621
0 0 -0.000432241
0 0 -0.000259397
0 0 -0.000120739
0 0 0
0 0 0
0 0 -0.000111292
0 0 -0.000237008
0 0 -0.000389933
0 0 -0.000577361
0 0 -0.000695963
0 0 -0.000845986
0 0 -0.00120216
0 0 -0.00158111
0 0 -0.00197169
0 0 -0.00235803
0 0 -0.0027163
0 0 -0.00300416
0 0 -0.00313115
0 0 -0.00328656
0 0 -0.00355692
0 0 -0.00371106
0 0 -0.00375088
0 0 -0.00376201
0 0 -0.00375561
0 0 -0.0037384
0 0 -0.00368761
0 0 -0.00352537
0 0 -0.00325077
0 0 -0.00309497
0 0 -0.00296871
0 0 -0.00268527
0 0 -0.00233405
0 0 -0.00195598
0 0 -0.00157361
0 0 -0.00120158
0 0 -0.000850148
0 0 -0.000701069
0 0 -0.000581863
0 0 -0.000392341
0 0 -0.000238108
0 0 -0.000111691
0 0 0
0 0 0
0 0 -8.38333e-05
0 0 -0.00017749
0 0 -0.000289628
0 0 -0.000425927
0 0 -0.000512776
0 0 -0.000624543
0 0 -0.000885459
0 0 -0.00116234
0 0 -0.00144722
0 0 -0.00172953
0 0 -0.00199465
0 0 -0.00222146
0 0 -0.00232208
0 0 -0.00242717
0 0 -0.0026048
0 0 -0.00271605
0 0 -0.00276221
0 0 -0.00277309
0 0 -0.00276834
0 0 -0.00275297
0 0 -0.00269878
0 0 -0.00258145
0 0 -0.0024003
0 0 -0.00229472
0 0 -0.0021947
0 0 -0.00197131
0 0 -0.00171131
0 0 -0.00143491
0 0 -0.00115588
0 0 -0.00088402
0 0 -0.000626883
0 0 -0.00051613
0 0 -0.000429188
0 0 -0.000291675
0 0 -0.000178581
0 0 -8.42864e-05
0 0 0
0 0 0
0 0 -4.47368e-05
0 0 -9.43778e-05
0 0 -0.000153237
0 0 -0.000224323
0 0 -0.000269535
0 0 -0.000327596
0 0 -0.000462431
0 0 -0.000605631
0 0 -0.000753029
0 0 -0.000899384
0 0 -0.00103784
0 0 -0.00115947
0 0 -0.00121335
0 0 -0.00126577
0 0 -0.00135282
0 0 -0.00141004
0 0 -0.00143805
0 0 -0.00144448
0 0 -0.001442
0 0 -0.00143323
0 0 -0.00140106
0 0 -0.00134064
0 0 -0.00125164
0 0 -0.00119892
0 0 -0.00114536
0 0 -0.00102554
0 0 -0.000889722
0 0 -0.000746397
0 0 -0.000601994
0 0 -0.000461413
0 0 -0.000328628
0 0 -0.000271167
0 0 -0.000225989
0 0 -0.000154367
0 0 -9.5022e-05
0 0 -4.50182e-05
0 0 0
0 0 0
0 0 0
0 0 0
0 0 0
0 0 0
0 0 0
0 0 0
0 0 0
0 0 0
0 0 0
0 0 0
0 0 0
0 0 0
0 0 0
0 0 0
0 0 0
0 0 0
0 0 0
0 0 0
0 0 0
0 0 0
0 0 0
0 0 0
0 0 0
0 0 0
0 0 0
0 0 0
0 0 0
0 0 0
0 0 0
0 0 0
0 0 0
0 0 0
0 0 0
0 0 0
0 0 0
0 0 0
0 0 0
0 0 0
0 4.52303e-05 0
0 9.57238e-05 0
0 0.000156113 0
0 0.000229623 0
0 0.000276398 0
0 0.000336243 0
0 0.000475212 0
0 0.000622979 0
0 0.000775093 0
0 0.000926088 0
0 0.00106892 0
0 0.0011945 0
0 0.00125014 0
0 0.00130416 0
0 0.00139391 0
0 0.00145308 0
0 0.00148225 0
0 0.00148896 0
0 0.00148648 0
0 0.00147742 0
0 0.00144414 0
0 0.00138193 0
0 0.00129054 0
0 0.00123644 0
0 0.00118139 0
0 0.00105833 0
0 0.000919074 0
0 0.000772267 0
0 0.000624484 0
0 0.000480707 0
0 0.000344901 0
0 0.000285942 0
0 0.000239252 0
0 0.000164527 0
0 0.000101913 0
0 4.85009e-05 0
0 0 0
4.60566e-05 0 0
5.1137e-05 3.94126e-05 4.56497e-05
6.06953e-05 8.4116e-05 9.69277e-05
7.33812e-05 0.0001388 0.000159018
9.30785e-05 0.000206415 0.000235871
0.000119 0.000249662 0.000286213
0.000137979 0.000305233 0.000351264
0.000146487 0.000435655 0.000501498
0.000150676 0.00057406 0.00066195
0.000149532 0.000716343 0.000828473
0.000141477 0.000856993 0.000996592
0.000124463 0.000988071 0.00116116
0.000110443 0.00109723 0.00131633
0.000107404 0.00114574 0.00138389
8.94466e-05 0.00120002 0.00143704
5.93717e-05 0.00129331 0.00151755
2.99162e-05 0.00134928 0.00157802
1.45829e-05 0.00136861 0.0016202
-9.3067e-07 0.00137334 0.00162971
-1.61745e-05 0.00137106 0.00162664
-3.09821e-05 0.00136417 0.00161424
-5.94624e-05 0.00134103 0.00156697
-8.82401e-05 0.00128232 0.00150252
-0.000104804 0.00118774 0.00141947
-0.000106561 0.00113348 0.00136593
-0.000119332 0.00108551 0.00129889
-0.000135355 0.000978613 0.00114627
-0.000142811 0.0008509 0.000985109
-0.000143758 0.000714273 0.000820751
-0.000139769 0.000576223 0.000657859
-0.000131835 0.000441787 0.000500531
-0.000113968 0.000314539 0.000352741
-8.94404e-05 0.000259818 0.0002884
-7.07953e-05 0.000216598 0.000238031
-5.86865e-05 0.000147645 0.000160419
-4.94844e-05 9.05953e-05 9.771e-05
-4.45742e-05 4.28289e-05 4.59887e-05
0 0 0
8.61596e-05 0 0
9.63207e-05 2.74342e-05 8.60901e-05
0.000115468 5.98469e-05 0.000183877
0.00014057 0.000101758 0.00030457
0.000178742 0.000155193 0.000457355
0.000229057 0.000188658 0.000559738
0.00026698 0.000228983 0.000692556
0.000283176 0.000329059 0.000999247
0.000291092 0.000436153 0.00132606
0.000288304 0.000546822 0.00166429
0.000270803 0.000655637 0.0020053
0.000232134 0.000753262 0.0023393
0.000206242 0.000818333 0.00265525
0.000214994 0.000846506 0.00279326
0.000182104 0.000898441 0.00290175
0.000115258 0.000993904 0.00306647
4.97196e-05 0.00103877 0.00319009
2.49566e-05 0.0010336 0.00327626
-1.88694e-06 0.00103414 0.00329555
-2.82279e-05 0.00103248 0.00328936
-5.20103e-05 0.00103035 0.00326422
-0.000115585 0.00103261 0.00316777
-0.000179802 0.000985856 0.00303619
-0.000210038 0.000889925 0.00286655
-0.000199048 0.000838243 0.00275739
-0.00022257 0.000810417 0.00262047
-0.000259226 0.000746912 0.0023097
-0.0002755 0.000652 0.00198266
-0.000277854 0.000546615 0.00164934
-0.000270291 0.000439751 0.00131851
-0.000255233 0.00033646 0.000997947
-0.00021958 0.000239569 0.000695899
-0.000172053 0.0002 0.000564307
-0.000135902 0.00016641 0.00046165
-0.000111856 0.000111403 0.000307127
-9.33483e-05 6.68675e-05 0.000185208
-8.34912e-05 3.11228e-05 8.6639e-05
0 0 0
0.000114041 0 0
0.000128915 8.93373e-06 0.00011581
0.000157051 2.13495e-05 0.000249958
0.000192977 4.06346e-05 0.000421516
0.000244068 6.6256e-05 0.000648941
0.000307758 7.75514e-05 0.000809672
0.000364698 6.62019e-05 0.00101814
0.000387625 7.03551e-05 0.00149905
0.000399003 8.59779e-05 0.0020079
0.000394386 0.000107797 0.00253067
0.00036586 0.000130667 0.00305552
0.00029494 0.000147352 0.0035693
0.000260647 0.000118261 0.00405862
0.000317169 9.86452e-05 0.00427384
0.000276273 0.000133907 0.00444202
0.000159424 0.000204683 0.004699
4.44768e-05 0.00021645 0.0048925
2.64293e-05 0.000167556 0.00502822
-2.7071e-06 0.000163768 0.00505807
-3.12108e-05 0.000163705 0.00504868
-4.80423e-05 0.000167396 0.00500995
-0.000160092 0.0002158 0.00485859
-0.00027299 0.000204125 0.00465323
-0.00031034 0.000134477 0.00438934
-0.00025145 9.98534e-05 0.00422037
-0.000282579 0.00011935 0.00400687
-0.000350433 0.000148422 0.00352543
-0.00037709 0.000132759 0.0030224
-0.000380945 0.000111552 0.0025095
-0.000369928 9.20697e-05 0.00199824
-0.000348629 7.95116e-05 0.00149889
-0.000295259 7.86336e-05 0.00102424
-0.000235737 9.05783e-05 0.000816873
-0.000187293 7.87897e-05 0.000654996
-0.000152627 5.13225e-05 0.000424517
-0.000125246 2.90923e-05 0.000251288
-0.000110733 1.29895e-05 0.000116291
0 0 0
0.000123128 0 0
0.000141138 -2.18629e-05 0.000128996
0.000175444 -4.43633e-05 0.000282649
0.00021664 -6.62905e-05 0.000490309
0.000263683 -8.34467e-05 0.000790234
0.000281473 -8.41781e-05 0.00103161
0.000364792 -0.000313872 0.00133593
0.00039902 -0.000670484 0.00204021
0.000416584 -0.000937259 0.00277002
0.000413125 -0.00118281 0.00350743
0.000378646 -0.00141293 0.00424033
0.000262323 -0.00159598 0.0049534
0.000218279 -0.00159591 0.00563802
0.000384844 -0.00158066 0.00594322
0.00034467 -0.00175397 0.00617917
0.000169495 -0.0020923 0.00654699
-5.4147e-06 -0.00218327 0.0068257
1.83738e-05 -0.00202664 0.00702319
-2.73732e-06 -0.00200925 0.0070647
-2.32931e-05 -0.00200557 0.00705206
1.39104e-06 -0.00201937 0.00699858
-0.000170097 -0.00216879 0.00677988
-0.000340367 -0.00207286 0.00648557
-0.000376921 -0.00173317 0.0061095
-0.000209556 -0.00156024 0.00587292
-0.000250303 -0.00157496 0.00557002
-0.000362651 -0.00157571 0.00489582
-0.000394784 -0.00139592 0.0041975
-0.000397033 -0.0011695 0.0034814
-0.000379415 -0.000926563 0.00276046
-0.000346933 -0.000659482 0.00204413
-0.000268997 -0.000298169 0.00134689
-0.00025673 -6.76533e-05 0.00104095
-0.000211658 -6.9248e-05 0.0007961
-0.000171309 -5.41641e-05 0.000492099
-0.00013759 -3.55675e-05 0.000283022
-0.000119886 -1.72642e-05 0.000128991
0 0 0
0.000112173 0 0
0.000129659 -5.8845e-05 0.000119342
0.000163813 -0.000124961 0.000263777
0.000206638 -0.000202555 0.000466476
0.000260551 -0.000277702 0.000785354
4.85764e-05 -0.000258449 0.00111934
0.000183281 -0.000325753 0.00149789
0.000262527 -0.000472087 0.00241214
0.000290784 -0.000628117 0.00331228
0.000295142 -0.000789328 0.00420394
0.00028436 -0.00094998 0.00508094
0.000259828 -0.00110429 0.00592228
0.000231232 -0.0012453 0.00669242
0.000209413 -0.0013078 0.00703311
0.000173652 -0.00136413 0.00733891
0.000122556 -0.00145653 0.00783629
7.18388e-05 -0.00152057 0.00817734
3.49952e-05 -0.00155707 0.00836986
-1.37351e-06 -0.00156547 0.00841381
-3.72791e-05 -0.0015629 0.00839929
-7.32162e-05 -0.00155206 0.00834154
-0.000121649 -0.00151118 0.0081242
-0.00016968 -0.001444 0.0077654
-0.0002029 -0.00135013 0.00725977
-0.000223049 -0.00129375 0.00695374
-0.000249267 -0.00123164 0.00661533
-0.000271215 -0.00109259 0.00585642
-0.000280015 -0.000941345 0.00503222
-0.000274141 -0.000784339 0.00417529
-0.000244787 -0.000626803 0.00330379
-0.000165845 -0.000473657 0.00242091
-3.86956e-05 -0.000326669 0.00151618
-0.000257979 -0.000250328 0.00112858
-0.000202922 -0.000264302 0.000789437
-0.000160349 -0.000189177 0.000467248
-0.000126598 -0.000115029 0.000263645
-0.000109353 -5.36425e-05 0.000119128
0 0 0
8.26709e-05 0 0
9.62971e-05 -8.2439e-05 8.78366e-05
0.000124224 -0.000178023 0.000194613
0.000167384 -0.000300484 0.000344582
0.000276762 -0.000464219 0.000573379
-3.1331e-05 -0.000599535 0.000773468
9.99892e-05 -0.000573514 0.000207007
0.000175298 -0.000662348 0.000237829
0.000201342 -0.000829515 0.000323317
0.00020633 -0.00102355 0.000409752
0.00019919 -0.00122298 0.000494863
0.000181968 -0.00141568 0.000576538
0.000162012 -0.00159169 0.000651296
0.000146839 -0.00166998 0.000684347
0.000121955 -0.00174086 0.000713996
8.61128e-05 -0.00185835 0.00076213
5.02502e-05 -0.00194085 0.000794973
2.4059e-05 -0.00198836 0.000813302
-1.83066e-06 -0.00199934 0.000817365
-2.739e-05 -0.00199607 0.000815528
-5.29359e-05 -0.00198198 0.000809716
-8.71775e-05 -0.00192889 0.000788246
-0.000120861 -0.00184239 0.000753155
-0.000143973 -0.00172301 0.000703977
-0.000157989 -0.00165202 0.000674299
-0.000176305 -0.00157419 0.000641532
-0.000191793 -0.00140058 0.000568183
-0.000197713 -0.00121177 0.000488654
-0.000192017 -0.00101701 0.00040605
-0.000165966 -0.000827535 0.000322123
-9.24779e-05 -0.000663073 0.000238752
3.33218e-05 -0.000569914 0.000208791
-0.000272558 -0.000584552 0.000771865
-0.000164386 -0.000448214 0.000574376
-0.000121675 -0.000285802 0.000344902
-9.40861e-05 -0.000167301 0.000194488
-8.06414e-05 -7.68508e-05 8.76774e-05
0 0 0
-4.66982e-08 0 0
-5.48827e-08 -8.24374e-05 -3.48568e-08
-7.78611e-08 -0.00017802 -6.93086e-08
-1.35009e-07 -0.000300481 -1.00546e-07
-2.9257e-07 -0.000464223 -1.17959e-07
2.17872e-08 -0.000599544 -1.0148e-07
3.79018e-08 -0.000573524 -1.46492e-08
4.96968e-08 -0.000662358 -1.25376e-09
5.92037e-08 -0.000829524 -5.77328e-10
6.60281e-08 -0.00102356 -3.85592e-10
6.9949e-08 -0.00122299 -2.08526e-10
7.1126e-08 -0.00141568 -4.49751e-11
7.03069e-08 -0.00159169 9.26657e-11
6.91147e-08 -0.00166998 1.45044e-10
6.68802e-08 -0.00174086 1.95992e-10
6.26239e-08 -0.00185834 2.68316e-10
5.7555e-08 -0.00194084 3.07914e-10
5.34516e-08 -0.00198835 3.21325e-10
4.92619e-08 -0.00199934 3.2051e-10
4.50348e-08 -0.00199607 3.06454e-10
4.08672e-08 -0.00198198 2.96078e-10
3.58224e-08 -0.00192888 2.72093e-10
3.11359e-08 -0.00184239 2.40258e-10
2.76601e-08 -0.00172301 2.02501e-10
2.52107e-08 -0.00165202 1.8054e-10
2.19802e-08 -0.00157418 1.66441e-10
1.85196e-08 -0.00140058 1.36401e-10
1.54755e-08 -0.00121177 1.07512e-10
1.27075e-08 -0.00101701 8.2924e-11
1.00247e-08 -0.000827534 6.35697e-11
7.05824e-09 -0.000663071 7.77716e-11
3.04747e-09 -0.00056991 4.64296e-10
-3.98409e-07 -0.000584547 -2.6679e-09
-1.62564e-07 -0.000448205 3.81382e-08
-7.77795e-08 -0.000285801 4.55481e-08
-4.37812e-08 -0.000167302 3.35277e-08
-3.16736e-08 -7.68513e-05 1.70485e-08
0 0 0
-8.27625e-05 0 0
-9.64053e-05 -5.8837e-05 -8.79044e-05
-0.00012438 -0.000124942 -0.000194747
-0.000167661 -0.00020252 -0.000344775
-0.000277357 -0.000277653 -0.000573601
3.13697e-05 -0.000258463 -0.000773656
-9.99163e-05 -0.000325772 -0.000207051
-0.000175199 -0.000472105 -0.000237848
-0.000201223 -0.000628132 -0.000323331
-0.000206198 -0.000789338 -0.000409762
-0.000199049 -0.000949986 -0.000494868
-0.000181826 -0.00110429 -0.000576539
-0.000161872 -0.00124529 -0.000651293
-0.000146701 -0.0013078 -0.000684343
-0.000121821 -0.00136412 -0.000713991
-8.5988e-05 -0.00145652 -0.000762123
-5.01359e-05 -0.00152056 -0.000794965
-2.39529e-05 -0.00155706 -0.000813293
1.92824e-06 -0.00156546 -0.000817357
2.74792e-05 -0.00156289 -0.00081552
5.30167e-05 -0.00155205 -0.000809708
8.72483e-05 -0.00151117 -0.000788239
0.000120922 -0.001444 -0.000753149
0.000144028 -0.00135013 -0.000703972
0.000158039 -0.00129375 -0.000674295
0.000176348 -0.00123163 -0.000641528
0.000191829 -0.00109259 -0.00056818
0.000197744 -0.000941342 -0.000488652
0.000192043 -0.000784336 -0.000406048
0.000165986 -0.0006268 -0.000322121
9.24937e-05 -0.000473654 -0.000238751
-3.33124e-05 -0.000326662 -0.00020879
0.000271769 -0.00025031 -0.000771873
0.000164053 -0.000264355 -0.000574306
0.000121519 -0.00018921 -0.000344814
9.39988e-05 -0.000115045 -0.000194422
8.05786e-05 -5.36486e-05 -8.7644e-05
0 0 0
-0.00011226 0 0
-0.000129761 -2.18462e-05 -0.000119407
-0.000163961 -4.43215e-05 -0.000263905
-0.000206909 -6.61935e-05 -0.00046666
-0.00026121 -8.31762e-05 -0.000785564
-4.85468e-05 -8.35103e-05 -0.00111951
-0.000183213 -0.00031326 -0.00149804
-0.00026243 -0.000669912 -0.00241227
-0.000290667 -0.000936756 -0.00331238
-0.000295011 -0.00118239 -0.004204
-0.000284221 -0.0014126 -0.00508097
-0.000259688 -0.00159575 -0.00592229
-0.000231093 -0.0015958 -0.0066924
-0.000209277 -0.0015806 -0.00703307
-0.00017352 -0.00175395 -0.00733887
-0.000122433 -0.00209239 -0.00783624
-7.17264e-05 -0.00218345 -0.00817728
-3.4891e-05 -0.00202689 -0.0083698
1.46931e-06 -0.00200954 -0.00841375
3.73666e-05 -0.00200594 -0.00839924
7.32954e-05 -0.00201978 -0.00834149
0.000121718 -0.00216928 -0.00812416
0.000169741 -0.0020734 -0.00776536
0.000202955 -0.00173373 -0.00725974
0.000223097 -0.0015608 -0.00695372
0.000249309 -0.00157556 -0.00661531
0.000271251 -0.00157639 -0.00585641
0.000280045 -0.00139665 -0.00503222
0.000274166 -0.00117025 -0.00417529
0.000244807 -0.000927341 -0.0033038
0.000165862 -0.000660274 -0.00242091
3.87167e-05 -0.00029896 -0.00151618
0.000257119 -6.85146e-05 -0.00112859
0.000202598 -6.95831e-05 -0.000789369
0.0001602 -5.42721e-05 -0.000467164
0.000126515 -3.56082e-05 -0.000263582
0.000109293 -1.72789e-05 -0.000119096
0 0 0
-0.000123206 0 0
-0.000141228 8.95353e-06 -0.000129055
-0.000175564 2.13955e-05 -0.000282766
-0.000216824 4.07256e-05 -0.000490479
-0.000263945 6.64386e-05 -0.000790437
-0.0002815 7.78193e-05 -0.00103181
-0.000364745 6.6473e-05 -0.00133613
-0.000398959 7.05975e-05 -0.00204038
-0.00041651 8.61882e-05 -0.00277016
-0.000413042 0.00010797 -0.00350754
-0.000378559 0.000130799 -0.0042404
-0.000262239 0.000147441 -0.00495343
-0.000218193 0.000118306 -0.00563801
-0.000384757 9.86692e-05 -0.0059432
-0.000344588 0.000133908 -0.00617913
-0.00016942 0.000204642 -0.00654694
5.48934e-06 0.000216369 -0.00682563
-1.83081e-05 0.000167436 -0.00702311
2.79574e-06 0.000163631 -0.00706462
2.33428e-05 0.000163535 -0.00705198
-1.35612e-06 0.000167212 -0.00699849
0.000170139 0.000215596 -0.00677979
0.00034042 0.000203898 -0.00648548
0.000376972 0.000134222 -0.00610942
0.000209565 9.95847e-05 -0.00587284
0.000250305 0.000119077 -0.00556994
0.000362665 0.000148144 -0.00489574
0.0003948 0.00013247 -0.00419741
0.000397047 0.000111252 -0.00348132
0.000379428 9.17612e-05 -0.00276037
0.000346951 7.91944e-05 -0.00204405
0.000268948 7.83013e-05 -0.00134682
0.000256396 9.02549e-05 -0.00104089
0.000211448 7.85795e-05 -0.000796015
0.000171194 5.1229e-05 -0.000492018
0.00013752 2.90504e-05 -0.000282964
0.000119833 1.2973e-05 -0.000128962
0 0 0
-0.000114099 0 0
-0.000128978 2.74531e-05 -0.000115855
-0.000157125 5.98879e-05 -0.000250048
-0.000193068 0.000101829 -0.000421646
-0.000244159 0.000155308 -0.000649103
-0.000307779 0.000188798 -0.000809841
-0.000364679 0.000229127 -0.00101831
-0.000387595 0.000329189 -0.00149921
-0.000398965 0.000436265 -0.00200802
-0.000394344 0.000546913 -0.00253076
-0.000365816 0.000655704 -0.00305559
-0.000294897 0.000753305 -0.00356933
-0.000260604 0.000818352 -0.00405862
-0.000317126 0.000846513 -0.00427383
-0.000276234 0.000898436 -0.004442
-0.000159388 0.000993877 -0.00469896
-4.44413e-05 0.00103872 -0.00489244
-2.63986e-05 0.00103353 -0.00502814
2.73346e-06 0.00103407 -0.00505799
3.12321e-05 0.00103239 -0.00504859
4.80566e-05 0.00103026 -0.00500986
0.00016011 0.00103251 -0.0048585
0.000273016 0.00098574 -0.00465313
0.000310363 0.000889794 -0.00438924
0.000251451 0.000838105 -0.00422027
0.000282576 0.000810278 -0.00400678
0.000350437 0.000746774 -0.00352533
0.000377095 0.000651859 -0.0030223
0.00038095 0.00054647 -0.0025094
0.000369932 0.000439603 -0.00199815
0.000348632 0.000336308 -0.0014988
0.000295227 0.000239413 -0.00102415
0.00023563 0.000199853 -0.000816788
0.000187199 0.000166296 -0.000654914
0.000152564 0.00011134 -0.000424451
0.000125201 6.68349e-05 -0.000251243
0.000110697 3.11089e-05 -0.000116268
0 0 0
-8.61974e-05 0 0
-9.63602e-05 3.94304e-05 -8.61203e-05
-0.000115511 8.41527e-05 -0.000183937
-0.000140616 0.000138858 -0.000304657
-0.00017878 0.000206497 -0.000457464
-0.000229068 0.000249754 -0.000559853
-0.000266973 0.000305327 -0.000692671
-0.000283162 0.000435741 -0.000999353
-0.000291073 0.000574134 -0.00132615
-0.000288282 0.000716402 -0.00166436
-0.00027078 0.000857035 -0.00200535
-0.000232112 0.000988096 -0.00233932
-0.000206221 0.00109724 -0.00265525
-0.000214972 0.00114574 -0.00279325
-0.000182085 0.00120002 -0.00290173
-0.00011524 0.00129329 -0.00306644
-4.9703e-05 0.00134925 -0.00319004
-2.49424e-05 0.00136856 -0.0032762
1.89881e-06 0.00137329 -0.0032955
2.82371e-05 0.001371 -0.0032893
5.20165e-05 0.00136411 -0.00326416
0.000115593 0.00134096 -0.0031677
0.000179814 0.00128224 -0.00303612
0.000210048 0.00118766 -0.00286648
0.000199048 0.00113339 -0.00275731
0.000222567 0.00108542 -0.0026204
0.000259226 0.00097853 -0.00230962
0.000275502 0.000850816 -0.00198259
0.000277855 0.000714188 -0.00164927
0.000270292 0.000576137 -0.00131843
0.000255232 0.000441701 -0.000997877
0.000219565 0.000314451 -0.000695833
0.000172013 0.000259736 -0.000564244
0.00013586 0.000216528 -0.000461591
0.000111824 0.000147601 -0.000307083
9.33227e-05 9.05697e-05 -0.000185178
8.34691e-05 4.28173e-05 -8.66242e-05
0 0 0
-4.60753e-05 0 0
-5.11561e-05 4.52474e-05 -4.56647e-05
-6.0715e-05 9.57582e-05 -9.69574e-05
-7.34009e-05 0.000156165 -0.000159061
-9.30938e-05 0.000229692 -0.000235925
-0.000119005 0.000276474 -0.00028627
-0.000137977 0.000336319 -0.000351322
-0.000146482 0.000475283 -0.000501551
-0.000150668 0.000623039 -0.000661994
-0.000149523 0.00077514 -0.000828508
-0.000141467 0.000926121 -0.000996614
-0.000124453 0.00106894 -0.00116117
-0.000110434 0.0011945 -0.00131633
-0.000107395 0.00125014 -0.00138389
-8.94387e-05 0.00130415 -0.00143703
-5.93646e-05 0.00139389 -0.00151754
-2.99096e-05 0.00145305 -0.001578
-1.45773e-05 0.00148221 -0.00162018
9.3528e-07 0.00148892 -0.00162968
1.6178e-05 0.00148643 -0.00162661
3.09844e-05 0.00147737 -0.00161421
5.94656e-05 0.00144408 -0.00156694
8.82445e-05 0.00138187 -0.00150248
0.000104807 0.00129048 -0.00141943
0.000106561 0.00123638 -0.00136589
0.000119331 0.00118133 -0.00129886
0.000135355 0.00105827 -0.00114624
0.000142811 0.00091901 -0.000985072
0.000143758 0.000772203 -0.000820714
0.000139768 0.00062442 -0.000657823
0.000131834 0.000480643 -0.000500496
0.000113962 0.000344837 -0.000352707
8.94256e-05 0.000285882 -0.000288368
7.07788e-05 0.000239199 -0.000238002
5.86726e-05 0.000164491 -0.000160397
4.94727e-05 0.00010189 -9.76952e-05
4.45637e-05 4.84905e-05 -4.59814e-05
0 0 0
0 0 0
0 0 0
0 0 0
0 0 0
0 0 0
0 0 0
0 0 0
0 0 0
0 0 0
0 0 0
0 0 0
0 0 0
0 0 0
0 0 0
0 0 0
0 0 0
0 0 0
0 0 0
0 0 0
0 0 0
0 0 0
0 0 0
0 0 0
0 0 0
0 0 0
0 0 0
0 0 0
0 0 0
0 0 0
0 0 0
0 0 0
0 0 0
0 0 0
0 0 0
0 0 0
0 0 0
0 0 0
0 0 0
0 0 0
0 0.000167429 0
0 0.000356228 0
0 0.000585833 0
0 0.00087069 0
0 0.00105599 0
0 0.00129425 0
0 0.0018454 0
0 0.00243382 0
0 0.00304319 0
0 0.0036555 0
0 0.00424946 0
0 0.00479989 0
0 0.00504063 0
0 0.00524084 0
0 0.00555275 0
0 0.00577847 0
0 0.00592319 0
0 0.00595598 0
0 0.00594514 0
0 0.00590217 0
0 0.00573964 0
0 0.00550051 0
0 0.00518096 0
0 0.00498024 0
0 0.00474227 0
0 0.00420318 0
0 0.0036246 0
0 0.0030299 0
0 0.0024385 0
0 0.00186656 0
0 0.00132862 0
0 0.00109415 0
0 0.000909171 0
0 0.000619296 0
0 0.000380787 0
0 0.000180395 0
0 0 0
0.000172018 0 0
0.000192711 0.000147116 4.50714e-05
0.000232277 0.000316836 9.6663e-05
0.000285939 0.000531002 0.000160797
0.000370437 0.000807444 0.000241985
0.00047555 0.00099395 0.000295334
0.000549072 0.0012355 0.000363671
0.000585242 0.00179543 0.000522479
0.000605546 0.00239073 0.000696601
0.000608311 0.00300437 0.000883304
0.000590304 0.00361921 0.00107916
0.000547609 0.00421447 0.00127931
0.000479638 0.00476354 0.00147738
0.000399337 0.00500488 0.00156055
0.000312074 0.00521123 0.00161137
0.00022778 0.00553656 0.00167038
0.000148773 0.00576623 0.00171679
7.10915e-05 0.00590592 0.00175808
-3.88504e-06 0.00593747 0.00176628
-7.76481e-05 0.00592668 0.00176148
-0.000152956 0.00588498 0.00174877
-0.000228011 0.00572748 0.00169962
-0.000307073 0.00548468 0.00164683
-0.000388136 0.0051524 0.00158339
-0.000462136 0.00494585 0.00153191
-0.000524668 0.00470727 0.00145003
-0.000563612 0.00416934 0.00125697
-0.00057944 0.00358946 0.00106262
-0.00057607 0.0029924 0.00087266
-0.000556673 0.0023971 0.000691324
-0.000522813 0.00181884 0.000521608
-0.000453968 0.00127267 0.000366137
-0.000355051 0.00103496 0.000298744
-0.000275104 0.000848572 0.000245261
-0.000223884 0.000566482 0.000162844
-0.00018587 0.000342727 9.77795e-05
-0.000165926 0.00016074 4.55489e-05
0 0 0
0.000323215 0 0
0.000365742 0.000105375 8.4896e-05
0.000448334 0.000234557 0.0001834
0.000562446 0.000414247 0.00030859
0.000742093 0.000672674 0.000470936
0.000956387 0.000866731 0.000579957
0.00110554 0.00111503 0.000720139
0.00117592 0.00169377 0.00104681
0.00121393 0.00230049 0.0014055
0.00121775 0.00291713 0.00179117
0.00118053 0.00352957 0.00219825
0.00109255 0.00411915 0.00261806
0.000959229 0.00465787 0.00303655
0.000809755 0.00489694 0.0032135
0.000636478 0.00511261 0.00332363
0.000458538 0.00546162 0.00345105
0.000291646 0.00569813 0.00354748
0.000138919 0.00582813 0.00363073
-8.45445e-06 0.00585755 0.00364685
-0.000153443 0.00584719 0.00363663
-0.000301476 0.00580796 0.00361089
-0.00046017 0.00566059 0.00351084
-0.000627233 0.0054119 0.00340095
-0.000788201 0.00505761 0.00326453
-0.000925697 0.00484233 0.00315328
-0.00104831 0.00460583 0.00297923
-0.00112858 0.00407738 0.00257163
-0.00116127 0.0035027 0.00216433
-0.00115606 0.00290797 0.0017698
-0.00111968 0.00231013 0.00139545
-0.00105388 0.00172154 0.00104584
-0.000914413 0.00115796 0.00072564
-0.000712951 0.000913656 0.000587084
-0.000542437 0.000719108 0.000477481
-0.00043302 0.000453628 0.000312355
-0.000353338 0.000262976 0.000185313
-0.000312199 0.000120237 8.5673e-05
0 0 0
0.000431775 0 0
0.000497159 4.11809e-05 0.000114
0.000628482 0.000103586 0.000249423
0.000819007 0.000219102 0.000428542
0.00112653 0.000442057 0.000672026
0.00144821 0.000674214 0.000843438
0.0016781 0.000928303 0.00106267
0.00177529 0.00154557 0.00157664
0.00182263 0.00216557 0.00214107
0.00182216 0.00277391 0.00274921
0.00176253 0.00336505 0.00339642
0.0016247 0.00392589 0.00407282
0.00143196 0.00442909 0.00475449
0.00123662 0.00465453 0.00504681
0.000982504 0.00487509 0.0052375
0.00069429 0.00524902 0.00546066
0.000423167 0.0054933 0.00561634
0.000200926 0.00561219 0.00573954