<?xml version="1.0"?>
<VTKFile type="RectilinearGrid" version="0.1" byte_order="LittleEndian">
<RectilinearGrid WholeExtent="0 37 0 14 0 34">
<Piece Extent="0 37 0 14 0 34">
<PointData>
<DataArray type="Float32" Name="MVP" NumberOfComponents="3" format="ascii">
0 0 0
0 0 0
0 0 0
0 0 0
0 0 0
0 0 0
0 0 0
0 0 0
0 0 0
0 0 0
0 0 0
0 0 0
0 0 0
0 0 0
0 0 0
0 0 0
0 0 0
0 0 0
0 0 0
0 0 0
0 0 0
0 0 0
0 0 0
0 0 0
0 0 0
0 0 0
0 0 0
0 0 0
0 0 0
0 0 0
0 0 0
0 0 0
0 0 0
0 0 0
0 0 0
0 0 0
0 0 0
0 0 0
0 0 0
0 0 -1.02723e-05
0 0 -2.14061e-05
0 0 -3.39939e-05
0 0 -4.80857e-05
0 0 -5.64976e-05
0 0 -6.7059e-05
0 0 -8.93728e-05
0 0 -0.000110105
0 0 -0.000129501
0 0 -0.00014771
0 0 -0.000163986
0 0 -0.000176227
0 0 -0.000181913
0 0 -0.000190159
0 0 -0.000204876
0 0 -0.00021189
0 0 -0.000211288
0 0 -0.00021057
0 0 -0.000208127
0 0 -0.000206532
0 0 -0.000203017
0 0 -0.000192835
0 0 -0.000176201
0 0 -0.00016765
0 0 -0.000162251
0 0 -0.000151713
0 0 -0.000137952
0 0 -0.000122645
0 0 -0.000106138
0 0 -8.79652e-05
0 0 -6.7706e-05
0 0 -5.77724e-05
0 0 -4.94358e-05
0 0 -3.49e-05
0 0 -2.19104e-05
0 0 -1.04872e-05
0 0 0
0 0 0
0 0 -1.90064e-05
0 0 -3.95455e-05
0 0 -6.25052e-05
0 0 -8.74776e-05
0 0 -0.000102298
0 0 -0.000122127
0 0 -0.000163642
0 0 -0.000200447
0 0 -0.000234
0 0 -0.000265074
0 0 -0.000291916
0 0 -0.000308799
0 0 -0.000316806
0 0 -0.00033312
0 0 -0.000363455
0 0 -0.000375741
0 0 -0.000370228
0 0 -0.000367987
0 0 -0.000363327
0 0 -0.00036115
0 0 -0.000358769
0 0 -0.000340499
0 0 -0.000306718
0 0 -0.000289922
0 0 -0.000282443
0 0 -0.000268744
0 0 -0.000246746
0 0 -0.000221301
0 0 -0.000193346
0 0 -0.000161436
0 0 -0.000123716
0 0 -0.000104967
0 0 -9.0143e-05
0 0 -6.41369e-05
0 0 -4.03803e-05
0 0 -1.93386e-05
0 0 0
0 0 0
0 0 -2.45357e-05
0 0 -5.0641e-05
0 0 -7.83622e-05
0 0 -0.000104503
0 0 -0.000118123
0 0 -0.000142465
0 0 -0.000192311
0 0 -0.000230672
0 0 -0.000263043
0 0 -0.000291924
0 0 -0.000314074
0 0 -0.000315844
0 0 -0.000316904
0 0 -0.000339769
0 0 -0.00038547
0 0 -0.000397548
0 0 -0.000376483
0 0 -0.000371087
0 0 -0.000364898
0 0 -0.000364403
0 0 -0.000374816
0 0 -0.00035489
0 0 -0.000305149
0 0 -0.000281902
0 0 -0.00028145
0 0 -0.00028369
0 0 -0.000268107
0 0 -0.000246987
0 0 -0.000222359
0 0 -0.000190656
0 0 -0.000145583
0 0 -0.000122308
0 0 -0.000108223
0 0 -8.02388e-05
0 0 -5.14197e-05
0 0 -2.47857e-05
0 0 0
0 0 0
0 0 -2.52108e-05
0 0 -5.06156e-05
0 0 -7.22965e-05
0 0 -7.4991e-05
0 0 -5.86472e-05
0 0 -7.21791e-05
0 0 -9.61549e-05
0 0 -9.58786e-05
0 0 -8.71759e-05
0 0 -7.5958e-05
0 0 -5.83789e-05
0 0 -4.3412e-06
0 0 2.26368e-05
0 0 1.24211e-06
0 0 -4.68622e-05
0 0 -4.34777e-05
0 0 1.15521e-05
0 0 2.14103e-05
0 0 2.73606e-05
0 0 2.32122e-05
0 0 -2.11129e-05
0 0 -1.70043e-05
0 0 3.3954e-05
0 0 5.51746e-05
0 0 2.79407e-05
0 0 -2.93998e-05
0 0 -5.36218e-05
0 0 -7.29651e-05
0 0 -8.99575e-05
0 0 -9.73759e-05
0 0 -7.77619e-05
0 0 -6.4116e-05
0 0 -7.87638e-05
0 0 -7.34569e-05
0 0 -5.0738e-05
0 0 -2.51062e-05
0 0 0
0 0 0
0 0 -2.21156e-05
0 0 -4.309e-05
0 0 -5.50711e-05
0 0 -2.57701e-05
0 0 6.70439e-05
0 0 8.24799e-05
0 0 0.000143446
0 0 0.000225072
0 0 0.000312885
0 0 0.000399135
0 0 0.000479453
0 0 0.000550594
0 0 0.000581793
0 0 0.000609913
0 0 0.000656624
0 0 0.000690692
0 0 0.000712516
0 0 0.000718916
0 0 0.000722651
0 0 0.0007198
0 0 0.000704351
0 0 0.000674848
0 0 0.000630309
0 0 0.000602309
0 0 0.000570604
0 0 0.00049673
0 0 0.000411994
0 0 0.000320282
0 0 0.000226546
0 0 0.000139169
0 0 7.4221e-05
0 0 6.08052e-05
0 0 -2.89846e-05
0 0 -5.57113e-05
0 0 -4.29079e-05
0 0 -2.18766e-05
0 0 0
0 0 0
0 0 -1.58591e-05
0 0 -3.01946e-05
0 0 -3.51639e-05
0 0 -4.94813e-07
0 0 9.21759e-05
0 0 0.000135635
0 0 0.000218764
0 0 0.000317869
0 0 0.000422893
0 0 0.000526514
0 0 0.000624113
0 0 0.000711626
0 0 0.00075019
0 0 0.000784965
0 0 0.000842499
0 0 0.00088371
0 0 0.000909097
0 0 0.000916033
0 0 0.000918431
0 0 0.000913775
0 0 0.000892481
0 0 0.000854207
0 0 0.000798092
0 0 0.000763415
0 0 0.000724552
0 0 0.000635342
0 0 0.000534954
0 0 0.000427862
0 0 0.000319109
0 0 0.00021661
0 0 0.000131995
0 0 9.04606e-05
0 0 -2.08451e-06
0 0 -3.5506e-05
0 0 -3.00342e-05
0 0 -1.56757e-05
0 0 0
0 0 0
0 0 2.48766e-08
0 0 5.11343e-08
0 0 8.11352e-08
0 0 1.19988e-07
0 0 1.50755e-07
0 0 1.40779e-07
0 0 1.16001e-07
0 0 8.69336e-08
0 0 5.36931e-08
0 0 1.81692e-08
0 0 -1.74976e-08
0 0 -5.12477e-08
0 0 -6.65221e-08
0 0 -8.04383e-08
0 0 -1.04232e-07
0 0 -1.2238e-07
0 0 -1.34585e-07
0 0 -1.3844e-07
0 0 -1.41808e-07
0 0 -1.41562e-07
0 0 -1.37477e-07
0 0 -1.28963e-07
0 0 -1.16904e-07
0 0 -1.10271e-07
0 0 -1.03745e-07
0 0 -9.02826e-08
0 0 -7.58956e-08
0 0 -6.12422e-08
0 0 -4.70594e-08
0 0 -3.42616e-08
0 0 -2.44258e-08
0 0 -2.19691e-08
0 0 -1.69533e-08
0 0 -1.20438e-08
0 0 -7.8452e-09
0 0 -3.86933e-09
0 0 0
0 0 0
0 0 1.59075e-05
0 0 3.02941e-05
0 0 3.53222e-05
0 0 7.31653e-07
0 0 -9.18728e-05
0 0 -0.000135348
0 0 -0.000218524
0 0 -0.000317688
0 0 -0.000422781
0 0 -0.000526476
0 0 -0.000624149
0 0 -0.000711733
0 0 -0.000750328
0 0 -0.000785131
0 0 -0.000842713
0 0 -0.000883961
0 0 -0.000909373
0 0 -0.000916317
0 0 -0.000918721
0 0 -0.000914064
0 0 -0.000892761
0 0 -0.00085447
0 0 -0.00079833
0 0 -0.000763638
0 0 -0.000724762
0 0 -0.000635525
0 0 -0.000535107
0 0 -0.000427986
0 0 -0.000319203
0 0 -0.000216677
0 0 -0.000132037
0 0 -9.04928e-05
0 0 2.05602e-06
0 0 3.54837e-05
0 0 3.00192e-05
0 0 1.56682e-05
0 0 0
0 0 0
0 0 2.21616e-05
0 0 4.31845e-05
0 0 5.52211e-05
0 0 2.59951e-05
0 0 -6.67468e-05
0 0 -8.21866e-05
0 0 -0.000143198
0 0 -0.000224885
0 0 -0.00031277
0 0 -0.000399096
0 0 -0.000479491
0 0 -0.000550705
0 0 -0.000581937
0 0 -0.000610085
0 0 -0.000656845
0 0 -0.00069095
0 0 -0.000712799
0 0 -0.000719207
0 0 -0.000722947
0 0 -0.000720095
0 0 -0.000704636
0 0 -0.000675115
0 0 -0.000630549
0 0 -0.000602534
0 0 -0.000570815
0 0 -0.000496915
0 0 -0.000412149
0 0 -0.000320406
0 0 -0.000226641
0 0 -0.000139234
0 0 -7.42558e-05
0 0 -6.08146e-05
0 0 2.89633e-05
0 0 5.56911e-05
0 0 4.28938e-05
0 0 2.18695e-05
0 0 0
0 0 0
0 0 2.52527e-05
0 0 5.07009e-05
0 0 7.24289e-05
0 0 7.51782e-05
0 0 5.88649e-05
0 0 7.23968e-05
0 0 9.63405e-05
0 0 9.60197e-05
0 0 8.72648e-05
0 0 7.59911e-05
0 0 5.8356e-05
0 0 4.26388e-06
0 0 -2.2739e-05
0 0 -1.36362e-06
0 0 4.67097e-05
0 0 4.32995e-05
0 0 -1.17516e-05
0 0 -2.16156e-05
0 0 -2.75699e-05
0 0 -2.34201e-05
0 0 2.09161e-05
0 0 1.68199e-05
0 0 -3.41255e-05
0 0 -5.53383e-05
0 0 -2.80934e-05
0 0 2.9269e-05
0 0 5.35112e-05
0 0 7.28743e-05
0 0 8.98858e-05
0 0 9.73227e-05
0 0 7.77283e-05
0 0 6.40931e-05
0 0 7.87412e-05
0 0 7.3438e-05
0 0 5.0725e-05
0 0 2.50996e-05
0 0 0
0 0 0
0 0 2.45673e-05
0 0 5.07044e-05
0 0 7.84574e-05
0 0 0.00010463
0 0 0.000118261
0 0 0.000142602
0 0 0.00019243
0 0 0.000230763
0 0 0.000263102
0 0 0.000291947
0 0 0.000314062
0 0 0.000315799
0 0 0.000316844
0 0 0.000339697
0 0 0.00038538
0 0 0.000397443
0 0 0.000376366
0 0 0.000370966
0 0 0.000364775
0 0 0.000364281
0 0 0.000374701
0 0 0.000354782
0 0 0.000305047
0 0 0.000281804
0 0 0.000281359
0 0 0.000283611
0 0 0.000268039
0 0 0.00024693
0 0 0.000222312
0 0 0.000190619
0 0 0.000145556
0 0 0.000122286
0 0 0.000108203
0 0 8.02235e-05
0 0 5.14095e-05
0 0 2.47806e-05
0 0 0
0 0 0
0 0 1.90273e-05
0 0 3.9587e-05
0 0 6.25663e-05
0 0 8.75559e-05
0 0 0.000102381
0 0 0.00012221
0 0 0.000163715
0 0 0.000200503
0 0 0.000234036
0 0 0.000265089
0 0 0.00029191
0 0 0.000308773
0 0 0.000316771
0 0 0.000333078
0 0 0.000363401
0 0 0.000375679
0 0 0.000370159
0 0 0.000367917
0 0 0.000363256
0 0 0.00036108
0 0 0.000358702
0 0 0.000340436
0 0 0.000306658
0 0 0.000289866
0 0 0.000282389
0 0 0.000268697
0 0 0.000246706
0 0 0.000221267
0 0 0.000193317
0 0 0.000161413
0 0 0.000123697
0 0 0.000104951
0 0 9.01289e-05
0 0 6.41263e-05
0 0 4.03733e-05
0 0 1.93352e-05
0 0 0
0 0 0
0 0 1.02827e-05
0 0 2.14266e-05
0 0 3.40237e-05
0 0 4.81233e-05
0 0 5.65374e-05
0 0 6.70984e-05
0 0 8.94072e-05
0 0 0.000110132
0 0 0.000129518
0 0 0.000147717
0 0 0.000163983
0 0 0.000176215
0 0 0.000181896
0 0 0.000190139
0 0 0.000204851
0 0 0.000211861
0 0 0.000211257
0 0 0.000210538
0 0 0.000208094
0 0 0.000206499
0 0 0.000202986
0 0 0.000192806
0 0 0.000176173
0 0 0.000167624
0 0 0.000162226
0 0 0.000151691
0 0 0.000137933
0 0 0.000122629
0 0 0.000106124
0 0 8.79537e-05
0 0 6.76967e-05
0 0 5.77642e-05
0 0 4.94286e-05
0 0 3.48947e-05
0 0 2.19069e-05
0 0 1.04854e-05
0 0 0
0 0 0
0 0 0
0 0 0
0 0 0
0 0 0
0 0 0
0 0 0
0 0 0
0 0 0
0 0 0
0 0 0
0 0 0
0 0 0
0 0 0
0 0 0
0 0 0
0 0 0
0 0 0
0 0 0
0 0 0
0 0 0
0 0 0
0 0 0
0 0 0
0 0 0
0 0 0
0 0 0
0 0 0
0 0 0
0 0 0
0 0 0
0 0 0
0 0 0
0 0 0
0 0 0
0 0 0
0 0 0
0 0 0
0 0 0
0 -1.08124e-05 0
0 -2.28574e-05 0
0 -3.70555e-05 0
0 -5.36794e-05 0
0 -6.37148e-05 0
0 -7.61188e-05 0
0 -0.000102681 0
0 -0.000128082 0
0 -0.000152283 0
0 -0.000175208 0
0 -0.000195929 0
0 -0.000212179 0
0 -0.000219652 0
0 -0.000229526 0
0 -0.00024698 0
0 -0.000255968 0
0 -0.000256542 0
0 -0.000256112 0
0 -0.000253651 0
0 -0.000251761 0
0 -0.000247099 0
0 -0.000235082 0
0 -0.000216002 0
0 -0.000206041 0
0 -0.000199121 0
0 -0.000185267 0
0 -0.000167983 0
0 -0.000149104 0
0 -0.000129113 0
0 -0.00010763 0
0 -8.42282e-05 0
0 -7.27424e-05 0
0 -6.28485e-05 0
0 -4.51372e-05 0
0 -2.88345e-05 0
0 -1.39809e-05 0
0 0 0
-1.16687e-05 0 0
-1.27164e-05 -9.08787e-06 -1.11254e-05
-1.45284e-05 -1.92328e-05 -2.36907e-05
-1.65128e-05 -3.10925e-05 -3.90087e-05
-1.96122e-05 -4.44957e-05 -5.79423e-05
-2.41278e-05 -5.25841e-05 -6.97999e-05
-2.55772e-05 -6.37837e-05 -8.33381e-05
-2.41226e-05 -8.74504e-05 -0.000110403
-2.27572e-05 -0.000108349 -0.000136698
-2.14508e-05 -0.0001274 -0.00016251
-1.93493e-05 -0.000145031 -0.000188395
-1.5114e-05 -0.000160072 -0.000214519
-1.40774e-05 -0.000168746 -0.000240426
-1.90834e-05 -0.000172864 -0.000251921
-1.71277e-05 -0.000182566 -0.000260507
-9.17757e-06 -0.000200931 -0.000272937
-1.30886e-06 -0.000208181 -0.00028204
-2.85458e-07 -0.000204445 -0.000288048
9.11437e-07 -0.00020321 -0.000288693
1.84442e-06 -0.000200974 -0.000285626
2.35376e-06 -0.000200094 -0.000282091
9.25634e-06 -0.000200069 -0.000270994
1.59213e-05 -0.000190123 -0.000257902
1.65172e-05 -0.000170492 -0.000242922
1.02874e-05 -0.000160809 -0.000233928
1.0114e-05 -0.000157176 -0.000222935
1.33764e-05 -0.000150626 -0.000199487
1.48825e-05 -0.000138784 -0.000176653
1.59708e-05 -0.000125002 -0.000154395
1.74855e-05 -0.000110031 -0.000132098
1.94474e-05 -9.30115e-05 -0.000108863
1.90443e-05 -7.25173e-05 -8.42515e-05
1.58742e-05 -6.22124e-05 -7.14677e-05
1.38122e-05 -5.42207e-05 -5.96479e-05
1.24122e-05 -3.96201e-05 -4.00892e-05
1.09681e-05 -2.55162e-05 -2.42727e-05
1.00981e-05 -1.24113e-05 -1.1369e-05
0 0 0
-2.14754e-05 0 0
-2.33671e-05 -5.52414e-06 -2.11138e-05
-2.64958e-05 -1.14809e-05 -4.53727e-05
-2.95003e-05 -1.74465e-05 -7.59179e-05
-3.49611e-05 -2.10727e-05 -0.000115355
-4.54413e-05 -2.16865e-05 -0.000141295
-4.78175e-05 -2.83589e-05 -0.00017088
-4.3294e-05 -4.16626e-05 -0.000227055
-3.99265e-05 -4.83482e-05 -0.000280317
-3.71837e-05 -5.22082e-05 -0.00033223
-3.26131e-05 -5.48547e-05 -0.000384495
-2.2267e-05 -5.46864e-05 -0.000437787
-2.10786e-05 -4.36452e-05 -0.000491701
-3.74718e-05 -3.851e-05 -0.000515802
-3.48373e-05 -4.67089e-05 -0.000533253
-1.63174e-05 -6.48399e-05 -0.000558329
1.96145e-06 -6.66161e-05 -0.00057721
1.28919e-06 -5.22419e-05 -0.000590381
1.82671e-06 -4.93726e-05 -0.000591868
1.87731e-06 -4.78188e-05 -0.000585672
2.5662e-07 -4.91979e-05 -0.000578343
1.65954e-05 -6.08149e-05 -0.000554881
3.25145e-05 -5.72588e-05 -0.000528028
3.25734e-05 -3.87389e-05 -0.000498008
1.4082e-05 -3.07971e-05 -0.000479837
1.29876e-05 -3.62117e-05 -0.000456784
2.13595e-05 -4.86151e-05 -0.000407872
2.47172e-05 -5.12614e-05 -0.000361294
2.69827e-05 -5.17867e-05 -0.000316438
3.05918e-05 -5.14927e-05 -0.000271678
3.60955e-05 -4.84529e-05 -0.000224536
3.58352e-05 -3.83246e-05 -0.000173051
2.80435e-05 -3.24757e-05 -0.000144813
2.4589e-05 -3.18435e-05 -0.000118751
2.2668e-05 -2.68137e-05 -7.78571e-05
2.02095e-05 -1.83421e-05 -4.63238e-05
1.86398e-05 -9.14008e-06 -2.14831e-05
0 0 0
-2.74721e-05 0 0
-2.95257e-05 -1.8608e-07 -2.86755e-05
-3.21411e-05 6.39631e-07 -6.26214e-05
-3.20855e-05 6.00074e-06 -0.000107986
-3.45575e-05 2.7297e-05 -0.000171937
-5.68021e-05 5.5216e-05 -0.000219058
-5.8724e-05 6.32776e-05 -0.000273312
-4.7296e-05 8.32189e-05 -0.000364118
-4.09873e-05 0.000116351 -0.000446214
-3.70545e-05 0.00015226 -0.000525715
-2.98293e-05 0.000187465 -0.000606455
-8.91135e-06 0.000222627 -0.000689969
-8.82078e-06 0.000274318 -0.000777434
-5.21284e-05 0.000300523 -0.000817101
-5.16333e-05 0.000300328 -0.000844009
-1.73646e-05 0.000295138 -0.000882385
1.64336e-05 0.000308607 -0.000913086
6.65454e-06 0.000341393 -0.000936845
2.54145e-06 0.000345568 -0.000939691
-2.16913e-06 0.000345359 -0.000930275
-1.30875e-05 0.000341026 -0.000918537
1.78729e-05 0.000308315 -0.000879097
4.82532e-05 0.000294453 -0.000836485
4.53545e-05 0.000298332 -0.000791123
-4.01156e-08 0.000297867 -0.000763361
-2.95418e-06 0.000271879 -0.000725345
1.49675e-05 0.000220524 -0.000645506
2.03604e-05 0.000184729 -0.000572351
2.34713e-05 0.000148316 -0.000503121
2.99451e-05 0.000110524 -0.000434727
4.26961e-05 7.46669e-05 -0.00036191
4.40475e-05 5.15308e-05 -0.000277512
2.57916e-05 4.28078e-05 -0.000224667
2.59997e-05 1.51728e-05 -0.000176695
2.73947e-05 -4.49044e-06 -0.000110134
2.55969e-05 -7.00824e-06 -6.34392e-05
2.39373e-05 -4.20224e-06 -2.89177e-05
0 0 0
-2.78317e-05 0 0
-2.85173e-05 7.04831e-06 -3.23209e-05
-2.58723e-05 1.64747e-05 -7.21956e-05
-8.76758e-06 3.57971e-05 -0.000130505
2.43707e-05 9.84701e-05 -0.000226387
-3.69574e-05 0.000249487 -0.000315906
-3.46005e-05 0.000303041 -0.000423589
-9.83144e-06 0.000465878 -0.000560824
-7.43939e-07 0.000622963 -0.00067666
2.37941e-06 0.000776059 -0.000790595
9.32726e-06 0.000921246 -0.000908148
4.63981e-05 0.00104214 -0.00103034
4.68136e-05 0.00107219 -0.00116296
-4.9588e-05 0.00107878 -0.00122462
-5.43713e-05 0.00117613 -0.00126294
-2.14497e-06 0.00136295 -0.00131901
5.02496e-05 0.00142231 -0.00136729
1.54999e-05 0.00135472 -0.00140875
2.29686e-06 0.00134752 -0.00141365
-1.13902e-05 0.00134312 -0.00140092
-4.68636e-05 0.00134603 -0.00138396
2.28412e-06 0.001405 -0.00132114
4.97877e-05 0.00133978 -0.0012571
4.16756e-05 0.00115153 -0.0011926
-5.50038e-05 0.00105472 -0.00115352
-5.76053e-05 0.00104754 -0.00109407
-2.43668e-05 0.0010184 -0.000971562
-1.96591e-05 0.000901604 -0.00086362
-1.78109e-05 0.000761167 -0.000762267
-9.08725e-06 0.000611768 -0.000664198
1.68608e-05 0.000455289 -0.000561474
2.40927e-05 0.000288122 -0.000431644
-3.21762e-05 0.00023398 -0.000323195
3.17642e-06 8.45218e-05 -0.000230727
2.13226e-05 2.36683e-05 -0.000131342
2.46662e-05 7.64722e-06 -7.20105e-05
2.43362e-05 2.43064e-06 -3.20585e-05
0 0 0
-2.4292e-05 0 0
-2.35749e-05 1.35828e-05 -2.98548e-05
-1.55224e-05 2.76846e-05 -6.73109e-05
2.40641e-05 4.20086e-05 -0.000124838
0.000177937 5.22154e-05 -0.0002329
1.9994e-05 5.15552e-05 -0.000381457
5.01606e-05 9.99852e-05 -0.000586885
7.19237e-05 0.000136758 -0.000758382
7.89292e-05 0.000166248 -0.000895995
7.79881e-05 0.00019564 -0.00104217
7.2623e-05 0.000225535 -0.00119571
6.40361e-05 0.000255499 -0.00135117
5.57778e-05 0.000284059 -0.00150025
4.99551e-05 0.000296924 -0.001568
4.09514e-05 0.000308541 -0.00162953
2.90396e-05 0.00032736 -0.00173002
1.75393e-05 0.000339637 -0.00179605
9.0755e-06 0.000345583 -0.00182809
5.68524e-07 0.000346369 -0.00183221
-8.31329e-06 0.000343732 -0.00181748
-1.75109e-05 0.000340438 -0.00179935
-3.08579e-05 0.000329982 -0.00174211
-4.52449e-05 0.000314472 -0.001658
-5.63029e-05 0.000294121 -0.001549
-6.34836e-05 0.000282428 -0.00148712
-7.36726e-05 0.000269931 -0.00142151
-8.44033e-05 0.000243302 -0.0012833
-9.1531e-05 0.000216367 -0.0011445
-9.40354e-05 0.000190071 -0.00101043
-8.85264e-05 0.00016431 -0.000883711
-6.73008e-05 0.000137684 -0.000762652
-3.00414e-05 0.000100274 -0.000601107
-0.000182135 4.27938e-05 -0.000388725
-2.85166e-05 3.82534e-05 -0.000235641
1.16324e-05 2.82782e-05 -0.000124765
2.02233e-05 1.75532e-05 -6.66777e-05
2.12346e-05 8.2901e-06 -2.94072e-05
0 0 0
-1.74281e-05 0 0
-1.62174e-05 1.71883e-05 -2.16558e-05
-7.53792e-06 3.26546e-05 -4.83601e-05
3.09501e-05 3.83019e-05 -8.68721e-05
0.000180563 3.33911e-06 -0.000146703
8.19487e-05 -9.04466e-05 -0.000184596
7.90704e-05 -0.000142731 0.000436635
9.61281e-05 -0.000233336 0.000635199
0.000102667 -0.000337593 0.000887007
0.000101612 -0.000447475 0.00114473
9.57993e-05 -0.000555876 0.00139694
8.58436e-05 -0.00065805 0.00163735
7.55152e-05 -0.00074974 0.00185622
6.79658e-05 -0.00079017 0.00195277
5.59824e-05 -0.000826642 0.00203941
3.96933e-05 -0.000887017 0.00218061
2.39056e-05 -0.000930256 0.00227863
1.2421e-05 -0.000956842 0.00233584
9.79787e-07 -0.000964068 0.00235001
-1.07007e-05 -0.000966434 0.00234995
-2.26524e-05 -0.000961456 0.00233572
-3.96077e-05 -0.000938913 0.00227841
-5.74472e-05 -0.000898586 0.00218033
-7.07034e-05 -0.000839639 0.00203913
-7.90907e-05 -0.000803284 0.00195253
-9.06076e-05 -0.000762587 0.00185604
-0.000101861 -0.0006693 0.00163739
-0.000108679 -0.000564495 0.0013973
-0.000110491 -0.000452897 0.00114548
-0.000104353 -0.000339884 0.000888164
-8.63097e-05 -0.000233961 0.000636636
-8.41775e-05 -0.000147878 0.000437382
-0.000186328 -0.000106806 -0.000183045
-3.45803e-05 -1.35584e-05 -0.000147131
4.64373e-06 2.31136e-05 -8.6649e-05
1.37759e-05 2.16478e-05 -4.7876e-05
1.52119e-05 1.14711e-05 -2.13239e-05
0 0 0
2.84247e-08 0 0
2.97635e-08 1.7187e-05 2.4839e-08
3.33621e-08 3.2652e-05 4.98838e-08
4.18144e-08 3.82984e-05 7.49409e-08
6.38254e-08 3.33685e-06 9.86027e-08
-1.82579e-08 -9.04439e-05 1.07655e-07
-2.3442e-08 -0.000142725 3.3814e-09
-2.77946e-08 -0.000233328 -3.62407e-09
-3.19567e-08 -0.000337586 -1.81496e-09
-3.4242e-08 -0.000447471 -1.0284e-09
-3.44274e-08 -0.000555875 -4.04837e-10
-3.25998e-08 -0.000658051 1.50991e-10
-2.94993e-08 -0.000749744 6.08743e-10
-2.68615e-08 -0.000790174 7.81835e-10
-2.29439e-08 -0.000826647 9.07982e-10
-1.74675e-08 -0.000887022 1.06221e-09
-1.1693e-08 -0.000930263 1.10024e-09
-7.31844e-09 -0.000956849 1.04408e-09
-3.08809e-09 -0.000964075 9.8634e-10
6.75799e-10 -0.00096644 8.26094e-10
4.18036e-09 -0.000961462 7.35779e-10
8.51076e-09 -0.000938919 5.48688e-10
1.1981e-08 -0.000898591 3.37874e-10
1.31542e-08 -0.000839642 9.91775e-11
1.29324e-08 -0.000803287 -2.93898e-11
1.33254e-08 -0.000762589 -1.01976e-10
1.42314e-08 -0.000669302 -2.46024e-10
1.44919e-08 -0.000564497 -3.9491e-10
1.40279e-08 -0.000452899 -5.26889e-10
1.26623e-08 -0.000339885 -6.53166e-10
9.73828e-09 -0.00023396 -1.03354e-09
4.87663e-09 -0.000147871 -5.47406e-09
1.00518e-08 -0.000106795 -2.15686e-08
4.96197e-09 -1.3553e-05 -1.90939e-08
4.26037e-09 2.31153e-05 -1.33882e-08
4.03753e-09 2.16485e-05 -8.41201e-09
3.93065e-09 1.14714e-05 -4.05152e-09
0 0 0
1.74835e-05 0 0
1.62755e-05 1.35782e-05 2.1704e-05
7.6036e-06 2.76747e-05 4.84567e-05
-3.0865e-05 4.19924e-05 8.70165e-05
-0.000180424 5.21933e-05 0.000146891
-8.19751e-05 5.15456e-05 0.0001848
-7.9113e-05 9.99978e-05 -0.000436611
-9.61831e-05 0.000136776 -0.000635194
-0.000102731 0.000166261 -0.000887002
-0.000101681 0.000195647 -0.00114473
-9.58687e-05 0.000225537 -0.00139694
-8.59093e-05 0.000255496 -0.00163735
-7.55744e-05 0.000284051 -0.00185622
-6.80188e-05 0.000296913 -0.00195277
-5.60273e-05 0.00030853 -0.00203941
-3.97273e-05 0.000327348 -0.00218061
-2.39279e-05 0.000339624 -0.00227864
-1.24344e-05 0.00034557 -0.00233585
-9.84676e-07 0.000346356 -0.00235001
1.07034e-05 0.00034372 -0.00234995
2.2662e-05 0.000340427 -0.00233573
3.96261e-05 0.000329972 -0.00227842
5.74729e-05 0.000314464 -0.00218034
7.07314e-05 0.000294116 -0.00203914
7.91173e-05 0.000282426 -0.00195254
9.06348e-05 0.000269928 -0.00185605
0.00010189 0.000243299 -0.0016374
0.000108708 0.000216365 -0.00139731
0.00011052 0.000190071 -0.00114549
0.00010438 0.000164311 -0.000888174
8.63348e-05 0.000137687 -0.000636647
8.41972e-05 0.000100289 -0.000437401
0.000186336 4.28394e-05 0.000182997
3.45866e-05 3.82678e-05 0.000147091
-4.63631e-06 2.82825e-05 8.66222e-05
-1.37682e-05 1.7555e-05 4.78593e-05
-1.52043e-05 8.29086e-06 2.13159e-05
0 0 0
2.43448e-05 0 0
2.36302e-05 7.04e-06 2.99007e-05
1.55847e-05 1.64563e-05 6.74026e-05
-2.3982e-05 3.57627e-05 0.000124974
-0.000177785 9.83958e-05 0.000233077
-1.99931e-05 0.00024933 0.000381649
-5.01965e-05 0.00030289 0.000587059
-7.19766e-05 0.000465751 0.000758525
-7.89919e-05 0.00062287 0.000896104
-7.80558e-05 0.000776006 0.00104224
-7.2691e-05 0.000921235 0.00119574
-6.41006e-05 0.00104217 0.00135117
-5.58359e-05 0.00107226 0.00150022
-5.0005e-05 0.00107886 0.00156796
-4.09935e-05 0.00117623 0.00162948
-2.90711e-05 0.00136309 0.00172995
-1.75592e-05 0.00142248 0.00179597
-9.0864e-06 0.00135489 0.00182801
-5.70913e-07 0.00134769 0.00183213
8.31834e-06 0.0013433 0.0018174
1.75226e-05 0.00134621 0.00179927
3.08785e-05 0.00140518 0.00174202
4.52734e-05 0.00133995 0.00165792
5.63345e-05 0.00115167 0.00154892
6.35101e-05 0.00105484 0.00148705
7.37003e-05 0.00104766 0.00142144
8.44338e-05 0.00101851 0.00128324
9.15619e-05 0.000901693 0.00114445
9.40654e-05 0.000761234 0.00101037
8.8555e-05 0.000611813 0.00088366
6.73319e-05 0.000455314 0.000762603
3.00922e-05 0.000288124 0.000601056
0.000182111 0.000233953 0.000388669
2.85178e-05 8.45192e-05 0.0002356
-1.16262e-05 2.36708e-05 0.000124739
-2.02162e-05 7.64943e-06 6.66616e-05
-2.12274e-05 2.43178e-06 2.93995e-05
0 0 0
2.788e-05 0 0
2.85672e-05 -1.96446e-07 3.23628e-05
2.59263e-05 6.17675e-07 7.22791e-05
8.8298e-06 5.96365e-06 0.000130629
-2.43015e-05 2.72363e-05 0.000226545
3.69661e-05 5.51365e-05 0.000316073
3.45778e-05 6.31974e-05 0.00042375
9.79676e-06 8.31516e-05 0.000560961
7.01813e-07 0.000116301 0.000676765
-2.42512e-06 0.000152229 0.000790664
-9.37332e-06 0.000187456 0.000908179
-4.64431e-05 0.000222639 0.00103033
-4.68545e-05 0.000274351 0.00116293
4.95577e-05 0.000300566 0.00122457
5.4348e-05 0.000300379 0.00126288
2.12577e-06 0.000295202 0.00131893
-5.02654e-05 0.000308682 0.0013672
-1.55068e-05 0.000341477 0.00140866
-2.29687e-06 0.000345654 0.00141356
1.13964e-05 0.000345447 0.00140082
4.68775e-05 0.000341113 0.00138386
-2.26965e-06 0.000308398 0.00132105
-4.97731e-05 0.00029453 0.00125702
-4.16589e-05 0.000298403 0.00119252
5.50267e-05 0.000297934 0.00115344
5.76282e-05 0.000271941 0.001094
2.43877e-05 0.000220576 0.000971497
1.96793e-05 0.000184772 0.000863561
1.78303e-05 0.000148351 0.000762214
9.106e-06 0.000110549 0.000664149
-1.6841e-05 7.46834e-05 0.000561429
-2.40711e-05 5.15375e-05 0.000431601
3.2177e-05 4.28084e-05 0.000323153
-3.1726e-06 1.51756e-05 0.000230692
-2.13165e-05 -4.48672e-06 0.000131319
-2.46596e-05 -7.00539e-06 7.19959e-05
-2.43296e-05 -4.20077e-06 3.20515e-05
0 0 0
2.75092e-05 0 0
2.95631e-05 -5.53506e-06 2.87074e-05
3.21791e-05 -1.15032e-05 6.26845e-05
3.21234e-05 -1.74811e-05 0.000108078
3.45886e-05 -2.11212e-05 0.000172053
5.68094e-05 -2.17415e-05 0.00021918
5.87142e-05 -2.84142e-05 0.000273432
4.72781e-05 -4.17101e-05 0.000364222
4.09644e-05 -4.83844e-05 0.000446294
3.70292e-05 -5.22309e-05 0.000525766
2.98039e-05 -5.48627e-05 0.000606477
8.88694e-06 -5.46796e-05 0.000689963
8.79939e-06 -4.36241e-05 0.000777403
5.21131e-05 -3.84825e-05 0.00081706
5.16224e-05 -4.66764e-05 0.000843959
1.73561e-05 -6.47997e-05 0.000882321
-1.64402e-05 -6.65695e-05 0.000913013
-6.65651e-06 -5.21898e-05 0.000936768
-2.53949e-06 -4.93191e-05 0.000939613
2.17457e-06 -4.77646e-05 0.000930196
1.30967e-05 -4.91443e-05 0.000918459
-1.78638e-05 -6.07645e-05 0.000879022
-4.82448e-05 -5.72117e-05 0.000836415
-4.53448e-05 -3.8695e-05 0.000791058
5.34112e-08 -3.07551e-05 0.0007633
2.96768e-06 -3.61726e-05 0.000725287
-1.49555e-05 -4.85818e-05 0.000645453
-2.03492e-05 -5.12334e-05 0.000572304
-2.34607e-05 -5.17636e-05 0.000503079
-2.9935e-05 -5.14744e-05 0.00043469
-4.2686e-05 -4.84393e-05 0.000361877
-4.40379e-05 -3.83158e-05 0.000277483
-2.57864e-05 -3.24691e-05 0.00022464
-2.59949e-05 -3.18375e-05 0.000176671
-2.73895e-05 -2.68088e-05 0.000110116
-2.55917e-05 -1.83388e-05 6.34283e-05
-2.39321e-05 -9.13842e-06 2.89124e-05
0 0 0
2.15004e-05 0 0
2.33919e-05 -9.09887e-06 2.11351e-05
2.65199e-05 -1.92547e-05 4.54145e-05
2.95226e-05 -3.1125e-05 7.59785e-05
3.49774e-05 -4.45378e-05 0.000115431
4.54462e-05 -5.26295e-05 0.000141375
4.78133e-05 -6.38289e-05 0.000170959
4.32849e-05 -8.74898e-05 0.000227124
3.99142e-05 -0.000108379 0.00028037
3.71699e-05 -0.000127419 0.000332264
3.25992e-05 -0.000145038 0.000384509
2.2254e-05 -0.000160067 0.000437781
2.10676e-05 -0.000168729 0.000491678
3.74641e-05 -0.000172842 0.000515772
3.48323e-05 -0.00018254 0.000533218
1.63138e-05 -0.000200899 0.000558284
-1.9638e-06 -0.000208144 0.00057716
-1.28915e-06 -0.000204405 0.000590328
-1.82459e-06 -0.000203169 0.000591813
-1.87338e-06 -0.000200933 0.000585618
-2.50875e-07 -0.000200053 0.00057829
-1.65899e-05 -0.000200031 0.00055483
-3.25093e-05 -0.000190088 0.00052798
-3.25676e-05 -0.000170458 0.000497964
-1.40745e-05 -0.000160777 0.000479795
-1.298e-05 -0.000157147 0.000456744
-2.13526e-05 -0.0001506 0.000407836
-2.47109e-05 -0.000138762 0.000361262
-2.69768e-05 -0.000124983 0.00031641
-3.05863e-05 -0.000110016 0.000271653
-3.60902e-05 -9.29991e-05 0.000224514
-3.58302e-05 -7.25078e-05 0.000173032
-2.80396e-05 -6.22043e-05 0.000144796
-2.45853e-05 -5.42136e-05 0.000118735
-2.26644e-05 -3.96148e-05 7.78459e-05
-2.02059e-05 -2.55126e-05 4.63166e-05
-1.86362e-05 -1.24095e-05 2.14796e-05
0 0 0
1.16812e-05 0 0
1.27287e-05 -1.08234e-05 1.1136e-05
1.45402e-05 -2.28789e-05 2.37114e-05
1.65233e-05 -3.70868e-05 3.90386e-05
1.96197e-05 -5.37188e-05 5.79794e-05
2.41303e-05 -6.37565e-05 6.98389e-05
2.55757e-05 -7.61602e-05 8.33766e-05
2.41188e-05 -0.000102717 0.000110436
2.27518e-05 -0.00012811 0.000136724
2.14446e-05 -0.000152301 0.000162527
1.93431e-05 -0.000175215 0.000188401
1.51083e-05 -0.000195924 0.000214516
1.40727e-05 -0.000212163 0.000240414
1.90802e-05 -0.000219632 0.000251905
1.71256e-05 -0.000229502 0.000260489
9.17633e-06 -0.000246951 0.000272914
1.30823e-06 -0.000255935 0.000282015
2.85842e-07 -0.000256506 0.000288021
-9.10153e-07 -0.000256076 0.000288666
-1.84238e-06 -0.000253614 0.000285599
-2.35098e-06 -0.000251725 0.000282064
-9.25362e-06 -0.000247065 0.000270969
-1.59187e-05 -0.00023505 0.000257878
-1.65144e-05 -0.000215973 0.0002429
-1.0284e-05 -0.000206013 0.000233907
-1.01105e-05 -0.000199095 0.000222915
-1.33733e-05 -0.000185244 0.000199469
-1.48796e-05 -0.000167963 0.000176637
-1.59682e-05 -0.000149087 0.000154381
-1.7483e-05 -0.000129099 0.000132086
-1.9445e-05 -0.000107618 0.000108853
-1.9042e-05 -8.42187e-05 8.42422e-05
-1.58722e-05 -7.2734e-05 7.14592e-05
-1.38103e-05 -6.28411e-05 5.96405e-05
-1.24103e-05 -4.51317e-05 4.00837e-05
-1.09663e-05 -2.88309e-05 2.42692e-05
-1.00963e-05 -1.39791e-05 1.13672e-05
0 0 0
0 0 0
0 0 0
0 0 0
0 0 0
0 0 0
0 0 0
0 0 0
0 0 0
0 0 0
0 0 0
0 0 0
0 0 0
0 0 0
0 0 0
0 0 0
0 0 0
0 0 0
0 0 0
0 0 0
0 0 0
0 0 0
0 0 0
0 0 0
0 0 0
0 0 0
0 0 0
0 0 0
0 0 0
0 0 0
0 0 0
0 0 0
0 0 0
0 0 0
0 0 0
0 0 0
0 0 0
0 0 0
0 0 0
0 0 0
0 -4.10166e-05 0
0 -8.82349e-05 0
0 -0.000147085 0
0 -0.000220843 0
0 -0.000266926 0
0 -0.000320528 0
0 -0.00043114 0
0 -0.000539743 0
0 -0.000646242 0
0 -0.00075143 0
0 -0.000854311 0
0 -0.000950926 0
0 -0.000994068 0
0 -0.0010314 0
0 -0.00108961 0
0 -0.00112828 0
0 -0.00114802 0
0 -0.00115005 0
0 -0.00113923 0
0 -0.00112704 0
0 -0.00108952 0
0 -0.00103742 0
0 -0.000971544 0
0 -0.00093365 0
0 -0.000893164 0
0 -0.00080753 0
0 -0.000719572 0
0 -0.000631494 0
0 -0.000542532 0
0 -0.000450163 0
0 -0.000352781 0
0 -0.000303107 0
0 -0.000257583 0
0 -0.000179299 0
0 -0.000112002 0
0 -5.36008e-05 0
0 0 0
-4.57323e-05 0 0
-5.12543e-05 -3.56255e-05 -1.09263e-05
-6.16398e-05 -7.80209e-05 -2.34298e-05
-7.49475e-05 -0.000133842 -3.89104e-05
-9.20952e-05 -0.000208519 -5.82117e-05
-0.000106327 -0.000258811 -7.04048e-05
-0.000108611 -0.000318249 -8.45861e-05
-0.000105477 -0.000432203 -0.000113552
-0.000102696 -0.000538596 -0.00014267
-0.00010119 -0.000640977 -0.000172808
-9.91931e-05 -0.000742335 -0.000205263
-9.3745e-05 -0.000842422 -0.000240885
-8.43855e-05 -0.000937144 -0.000279301
-7.35045e-05 -0.000979931 -0.000296379
-5.83115e-05 -0.00101785 -0.000306812
-4.06832e-05 -0.00107759 -0.00031803
-2.37434e-05 -0.00111632 -0.000325997
-9.5368e-06 -0.00113483 -0.000332362
3.88213e-06 -0.00113657 -0.000332484
1.60937e-05 -0.00112581 -0.000327677
2.79392e-05 -0.00111394 -0.000323041
4.09476e-05 -0.00107765 -0.000308824
5.33807e-05 -0.00102579 -0.000294499
6.24563e-05 -0.000959088 -0.000278891
6.71571e-05 -0.000920896 -0.000267812
7.12016e-05 -0.000880748 -0.000252027
7.30025e-05 -0.000796789 -0.000218562
7.28653e-05 -0.000711573 -0.000188608
7.37012e-05 -0.000627427 -0.000161852
7.72013e-05 -0.000542882 -0.000136889
8.23841e-05 -0.00045325 -0.000112051
8.44988e-05 -0.000353157 -8.63955e-05
7.62956e-05 -0.000297802 -7.32019e-05
6.36717e-05 -0.000247927 -6.09544e-05
5.28419e-05 -0.000168141 -4.05885e-05
4.40562e-05 -0.000103185 -2.43204e-05
3.93134e-05 -4.8905e-05 -1.12976e-05
0 0 0
-8.55675e-05 0 0
-9.70855e-05 -2.43509e-05 -2.07436e-05
-0.000119471 -5.59537e-05 -4.48884e-05
-0.000149798 -0.000103675 -7.56744e-05
-0.000191421 -0.000178901 -0.000115444
-0.00022304 -0.000241234 -0.000141643
-0.000219171 -0.000320206 -0.000172387
-0.000207307 -0.000440412 -0.000232614
-0.000199841 -0.000538502 -0.000291813
-0.000197138 -0.000630055 -0.000352952
-0.000194212 -0.000722211 -0.00041955
-0.000184276 -0.000815388 -0.000494014
-0.000166808 -0.000905332 -0.000575846
-0.000147005 -0.000946817 -0.000613022
-0.000117037 -0.000984864 -0.00063654
-8.04441e-05 -0.00104615 -0.000661788
-4.53836e-05 -0.00108486 -0.000678377
-1.77053e-05 -0.00110185 -0.000690551
8.43787e-06 -0.00110333 -0.000690444
3.22109e-05 -0.00109302 -0.000680204
5.52267e-05 -0.00108176 -0.000670677
8.21337e-05 -0.00104747 -0.000641706
0.000107932 -0.000996581 -0.00061169
0.000125759 -0.000929959 -0.000577535
0.00013383 -0.000892237 -0.000552944
0.000140844 -0.000853189 -0.000518704
0.000143315 -0.000773103 -0.000447651
0.000141822 -0.000694235 -0.000385392