<?xml version="1.0"?>
<VTKFile type="RectilinearGrid" version="0.1" byte_order="LittleEndian">
<RectilinearGrid WholeExtent="0 37 0 14 0 34">
<Piece Extent="0 37 0 14 0 34">
<PointData>
<DataArray type="Float32" Name="MVP" NumberOfComponents="3" format="ascii">
0 0 0
0 0 0
0 0 0
0 0 0
0 0 0
0 0 0
0 0 0
0 0 0
0 0 0
0 0 0
0 0 0
0 0 0
0 0 0
0 0 0
0 0 0
0 0 0
0 0 0
0 0 0
0 0 0
0 0 0
0 0 0
0 0 0
0 0 0
0 0 0
0 0 0
0 0 0
0 0 0
0 0 0
0 0 0
0 0 0
0 0 0
0 0 0
0 0 0
0 0 0
0 0 0
0 0 0
0 0 0
0 0 0
0 0 0
0 0 2.26467e-05
0 0 4.77521e-05
0 0 7.74698e-05
0 0 0.000113282
0 0 0.000136043
0 0 0.000165275
0 0 0.000233011
0 0 0.00030477
0 0 0.000378522
0 0 0.000451687
0 0 0.000520836
0 0 0.000581455
0 0 0.000608272
0 0 0.000634398
0 0 0.000677665
0 0 0.000705795
0 0 0.00071913
0 0 0.000722008
0 0 0.000720115
0 0 0.000715448
0 0 0.000698933
0 0 0.000668358
0 0 0.000623614
0 0 0.000597262
0 0 0.00057069
0 0 0.000511446
0 0 0.000444303
0 0 0.00037344
0 0 0.000301965
0 0 0.000232204
0 0 0.000166047
0 0 0.000137282
0 0 0.00011455
0 0 7.83318e-05
0 0 4.82442e-05
0 0 2.2862e-05
0 0 0
0 0 0
0 0 4.2445e-05
0 0 8.98093e-05
0 0 0.000146402
0 0 0.000214997
0 0 0.000258674
0 0 0.000314937
0 0 0.00044593
0 0 0.000584523
0 0 0.000726885
0 0 0.000867844
0 0 0.00100008
0 0 0.00111288
0 0 0.00116285
0 0 0.00121524
0 0 0.00130361
0 0 0.00135828
0 0 0.00137996
0 0 0.00138473
0 0 0.00138111
0 0 0.00137291
0 0 0.00134511
0 0 0.00128582
0 0 0.00119478
0 0 0.00114203
0 0 0.00109252
0 0 0.000982314
0 0 0.000853963
0 0 0.000717489
0 0 0.000579559
0 0 0.000444799
0 0 0.000316718
0 0 0.000261251
0 0 0.000217507
0 0 0.000147979
0 0 9.06512e-05
0 0 4.27954e-05
0 0 0
0 0 0
0 0 5.63568e-05
0 0 0.000119914
0 0 0.000196982
0 0 0.000290994
0 0 0.000350383
0 0 0.000425838
0 0 0.000604347
0 0 0.000793503
0 0 0.000988117
0 0 0.00118047
0 0 0.00135859
0 0 0.00150096
0 0 0.00156367
0 0 0.00164116
0 0 0.00177582
0 0 0.00185145
0 0 0.0018691
0 0 0.00187371
0 0 0.00186885
0 0 0.00185964
0 0 0.00183368
0 0 0.00175193
0 0 0.00161411
0 0 0.00153635
0 0 0.00147419
0 0 0.00133516
0 0 0.00116236
0 0 0.00097627
0 0 0.000787855
0 0 0.000603959
0 0 0.000429114
0 0 0.000354415
0 0 0.000294547
0 0 0.000198887
0 0 0.000120789
0 0 5.6678e-05
0 0 0
0 0 0
0 0 6.11265e-05
0 0 0.000130954
0 0 0.000217102
0 0 0.000321894
0 0 0.000384702
0 0 0.000452773
0 0 0.000629447
0 0 0.000822119
0 0 0.0010234
0 0 0.00122312
0 0 0.00140572
0 0 0.00152947
0 0 0.00158049
0 0 0.00167459
0 0 0.00184312
0 0 0.00192305
0 0 0.00191467
0 0 0.00191712
0 0 0.00191231
0 0 0.00190526
0 0 0.00190508
0 0 0.00181914
0 0 0.00164829
0 0 0.00155432
0 0 0.00150365
0 0 0.00138286
0 0 0.00120586
0 0 0.00101293
0 0 0.000818506
0 0 0.000631637
0 0 0.000458343
0 0 0.000390094
0 0 0.000325727
0 0 0.000218561
0 0 0.00013137
0 0 6.11914e-05
0 0 0
0 0 0
0 0 5.57721e-05
0 0 0.000119959
0 0 0.000200229
0 0 0.000299103
0 0 0.000358149
0 0 0.000366632
0 0 0.000450138
0 0 0.00057242
0 0 0.000708734
0 0 0.000847494
0 0 0.000981332
0 0 0.00110355
0 0 0.0011578
0 0 0.00120682
0 0 0.00128764
0 0 0.00134383
0 0 0.00137561
0 0 0.00138266
0 0 0.00137937
0 0 0.00136919
0 0 0.00133181
0 0 0.00127165
0 0 0.001189
0 0 0.00113995
0 0 0.00108621
0 0 0.000966602
0 0 0.000836891
0 0 0.00070317
0 0 0.000572209
0 0 0.000454917
0 0 0.000374577
0 0 0.000364511
0 0 0.000302613
0 0 0.000201295
0 0 0.000120131
0 0 5.57271e-05
0 0 0
0 0 0
0 0 4.10935e-05
0 0 8.87122e-05
0 0 0.000149383
0 0 0.000228996
0 0 0.000292142
0 0 0.000280547
0 0 0.00032469
0 0 0.000405727
0 0 0.000499624
0 0 0.000596158
0 0 0.000689447
0 0 0.000774626
0 0 0.000812483
0 0 0.000846734
0 0 0.000903391
0 0 0.000942954
0 0 0.000965419
0 0 0.000970425
0 0 0.000968158
0 0 0.000960999
0 0 0.000934679
0 0 0.000892382
0 0 0.000834472
0 0 0.000800192
0 0 0.000762693
0 0 0.000679303
0 0 0.000588867
0 0 0.000495816
0 0 0.000405563
0 0 0.000327691
0 0 0.000284796
0 0 0.000294858
0 0 0.000231119
0 0 0.000150128
0 0 8.88456e-05
0 0 4.10655e-05
0 0 0
0 0 0
0 0 -3.44353e-08
0 0 -7.50505e-08
0 0 -1.3298e-07
0 0 -2.33816e-07
0 0 -3.4301e-07
0 0 -3.32973e-07
0 0 -3.02928e-07
0 0 -2.64217e-07
0 0 -2.18355e-07
0 0 -1.67357e-07
0 0 -1.13433e-07
0 0 -5.86955e-08
0 0 -3.16856e-08
0 0 -5.13891e-09
0 0 4.61524e-08
0 0 9.40575e-08
0 0 1.37951e-07
0 0 1.58271e-07
0 0 1.95596e-07
0 0 2.12598e-07
0 0 2.43332e-07
0 0 2.70047e-07
0 0 2.93039e-07
0 0 3.03207e-07
0 0 3.12479e-07
0 0 3.28592e-07
0 0 3.41972e-07
0 0 3.52939e-07
0 0 3.61733e-07
0 0 3.68494e-07
0 0 3.73235e-07
0 0 3.74483e-07
0 0 2.31168e-07
0 0 1.13542e-07
0 0 5.6578e-08
0 0 2.39509e-08
0 0 0
0 0 0
0 0 -4.1161e-05
0 0 -8.88597e-05
0 0 -0.000149646
0 0 -0.000229466
0 0 -0.000292834
0 0 -0.000281221
0 0 -0.000325304
0 0 -0.000406262
0 0 -0.000500066
0 0 -0.000596495
0 0 -0.000689675
0 0 -0.000774743
0 0 -0.000812545
0 0 -0.000846742
0 0 -0.000903296
0 0 -0.000942762
0 0 -0.000965139
0 0 -0.000970104
0 0 -0.000967762
0 0 -0.00096057
0 0 -0.000934189
0 0 -0.000891839
0 0 -0.000833882
0 0 -0.000799582
0 0 -0.000762065
0 0 -0.000678644
0 0 -0.000588181
0 0 -0.000495108
0 0 -0.000404838
0 0 -0.000326953
0 0 -0.000284047
0 0 -0.000294106
0 0 -0.000230651
0 0 -0.000149901
0 0 -8.87331e-05
0 0 -4.1018e-05
0 0 0
0 0 0
0 0 -5.58364e-05
0 0 -0.000120099
0 0 -0.000200478
0 0 -0.000299553
0 0 -0.000358845
0 0 -0.000367314
0 0 -0.00045076
0 0 -0.000572962
0 0 -0.00070918
0 0 -0.000847834
0 0 -0.00098156
0 0 -0.00110366
0 0 -0.00115786
0 0 -0.00120683
0 0 -0.00128754
0 0 -0.00134364
0 0 -0.00137532
0 0 -0.00138233
0 0 -0.00137897
0 0 -0.00136876
0 0 -0.00133132
0 0 -0.0012711
0 0 -0.00118841
0 0 -0.00113933
0 0 -0.00108558
0 0 -0.00096594
0 0 -0.000836203
0 0 -0.00070246
0 0 -0.000571483
0 0 -0.000454177
0 0 -0.000373827
0 0 -0.000363755
0 0 -0.000302165
0 0 -0.00020108
0 0 -0.000120025
0 0 -5.56819e-05
0 0 0
0 0 0
0 0 -6.11842e-05
0 0 -0.000131078
0 0 -0.000217314
0 0 -0.000322241
0 0 -0.000385145
0 0 -0.000453223
0 0 -0.000629854
0 0 -0.000822471
0 0 -0.00102369
0 0 -0.00122333
0 0 -0.00140586
0 0 -0.00152954
0 0 -0.00158052
0 0 -0.00167459
0 0 -0.00184305
0 0 -0.00192292
0 0 -0.00191448
0 0 -0.0019169
0 0 -0.00191205
0 0 -0.00190498
0 0 -0.00190476
0 0 -0.0018188
0 0 -0.0016479
0 0 -0.00155392
0 0 -0.00150324
0 0 -0.00138245
0 0 -0.00120544
0 0 -0.00101249
0 0 -0.00081806
0 0 -0.000631182
0 0 -0.000457877
0 0 -0.000389646
0 0 -0.0003254
0 0 -0.000218385
0 0 -0.000131278
0 0 -6.11517e-05
0 0 0
0 0 0
0 0 -5.63988e-05
0 0 -0.000120001
0 0 -0.000197123
0 0 -0.0002912
0 0 -0.000350621
0 0 -0.000426081
0 0 -0.000604569
0 0 -0.000793694
0 0 -0.000988271
0 0 -0.00118058
0 0 -0.00135867
0 0 -0.001501
0 0 -0.00156369
0 0 -0.00164115
0 0 -0.00177578
0 0 -0.00185137
0 0 -0.00186899
0 0 -0.00187358
0 0 -0.00186871
0 0 -0.00185948
0 0 -0.00183351
0 0 -0.00175175
0 0 -0.0016139
0 0 -0.00153613
0 0 -0.00147398
0 0 -0.00133495
0 0 -0.00116215
0 0 -0.000976051
0 0 -0.000787633
0 0 -0.000603734
0 0 -0.000428888
0 0 -0.0003542
0 0 -0.000294372
0 0 -0.000198779
0 0 -0.000120728
0 0 -5.66505e-05
0 0 0
0 0 0
0 0 -4.24722e-05
0 0 -8.98646e-05
0 0 -0.000146488
0 0 -0.000215114
0 0 -0.000258805
0 0 -0.000315069
0 0 -0.000446052
0 0 -0.000584628
0 0 -0.000726969
0 0 -0.000867904
0 0 -0.00100011
0 0 -0.00111289
0 0 -0.00116285
0 0 -0.00121523
0 0 -0.00130358
0 0 -0.00135823
0 0 -0.0013799
0 0 -0.00138466
0 0 -0.00138103
0 0 -0.00137283
0 0 -0.00134502
0 0 -0.00128572
0 0 -0.00119468
0 0 -0.00114192
0 0 -0.00109241
0 0 -0.000982203
0 0 -0.000853852
0 0 -0.000717377
0 0 -0.000579446
0 0 -0.000444685
0 0 -0.000316606
0 0 -0.000261145
0 0 -0.000217415
0 0 -0.000147918
0 0 -9.06148e-05
0 0 -4.27785e-05
0 0 0
0 0 0
0 0 -2.266e-05
0 0 -4.77789e-05
0 0 -7.75103e-05
0 0 -0.000113336
0 0 -0.000136102
0 0 -0.000165334
0 0 -0.000233066
0 0 -0.000304817
0 0 -0.000378559
0 0 -0.000451714
0 0 -0.000520852
0 0 -0.00058146
0 0 -0.000608272
0 0 -0.000634394
0 0 -0.000677652
0 0 -0.000705775
0 0 -0.000719102
0 0 -0.000721977
0 0 -0.00072008
0 0 -0.000715411
0 0 -0.000698893
0 0 -0.000668315
0 0 -0.000623567
0 0 -0.000597214
0 0 -0.000570641
0 0 -0.000511398
0 0 -0.000444255
0 0 -0.000373391
0 0 -0.000301917
0 0 -0.000232156
0 0 -0.000165999
0 0 -0.000137237
0 0 -0.000114511
0 0 -7.83043e-05
0 0 -4.82272e-05
0 0 -2.28539e-05
0 0 0
0 0 0
0 0 0
0 0 0
0 0 0
0 0 0
0 0 0
0 0 0
0 0 0
0 0 0
0 0 0
0 0 0
0 0 0
0 0 0
0 0 0
0 0 0
0 0 0
0 0 0
0 0 0
0 0 0
0 0 0
0 0 0
0 0 0
0 0 0
0 0 0
0 0 0
0 0 0
0 0 0
0 0 0
0 0 0
0 0 0
0 0 0
0 0 0
0 0 0
0 0 0
0 0 0
0 0 0
0 0 0
0 0 0
0 0 0
0 2.30941e-05 0
0 4.89346e-05 0
0 7.99293e-05 0
0 0.000117733 0
0 0.000141768 0
0 0.000172445 0
0 0.000243514 0
0 0.000318941 0
0 0.000396474 0
0 0.000473354 0
0 0.000546004 0
0 0.000609778 0
0 0.000637999 0
0 0.000665402 0
0 0.000710811 0
0 0.000740476 0
0 0.000754713 0
0 0.000757805 0
0 0.000755875 0
0 0.000750964 0
0 0.000733527 0
0 0.000701494 0
0 0.000654817 0
0 0.000627354 0
0 0.000599584 0
0 0.000537736 0
0 0.000467828 0
0 0.000394166 0
0 0.000319968 0
0 0.000247622 0
0 0.000179014 0
0 0.000149039 0
0 0.000125092 0
0 8.63886e-05 0
0 5.36996e-05 0
0 2.56165e-05 0
0 0 0
2.3718e-05 0 0
2.63178e-05 2.01045e-05 2.31381e-05
3.12018e-05 4.29682e-05 4.91166e-05
3.76616e-05 7.10262e-05 8.05494e-05
4.76539e-05 0.00010579 0.00011942
6.07614e-05 0.000128022 0.000144878
7.02356e-05 0.000156563 0.000177711
7.43628e-05 0.000223317 0.000253266
7.63398e-05 0.00029394 0.00033379
7.56667e-05 0.000366402 0.000417273
7.15238e-05 0.000437952 0.00050153
6.28402e-05 0.000504562 0.000584015
5.57263e-05 0.000559918 0.00066179
5.42541e-05 0.000584483 0.000695604
4.51301e-05 0.000612033 0.000722079
2.98005e-05 0.000659283 0.000761932
1.48092e-05 0.000687356 0.000791644
7.0836e-06 0.000696606 0.000812121
-7.09541e-07 0.000698714 0.000816503
-8.29504e-06 0.000696946 0.000814143
-1.56162e-05 0.000693166 0.000807537
-2.98558e-05 0.000680952 0.000783148
-4.41863e-05 0.000650754 0.000750374
-5.22423e-05 0.000602503 0.000708569
-5.2739e-05 0.000574972 0.000681792
-5.89002e-05 0.000550811 0.000648382
-6.68262e-05 0.000497183 0.00057255
-7.05092e-05 0.000433148 0.000492657
-7.10253e-05 0.000364682 0.000411253
-6.91873e-05 0.000295471 0.000330525
-6.54812e-05 0.00022791 0.000252379
-5.68431e-05 0.000163627 0.000178702
-4.47972e-05 0.000135766 0.000146429
-3.56149e-05 0.000113581 0.00012097
-2.96048e-05 7.78253e-05 8.15499e-05
-2.50011e-05 4.7964e-05 4.96708e-05
-2.25358e-05 2.27431e-05 2.33764e-05
0 0 0
4.43376e-05 0 0
4.95281e-05 1.39466e-05 4.36642e-05
5.92923e-05 3.04797e-05 9.3243e-05
7.20461e-05 5.19217e-05 0.000154406
9.14129e-05 7.92658e-05 0.000231796
0.000116937 9.63891e-05 0.000283683
0.000135812 0.000117261 0.000350832
0.000143572 0.000168654 0.000505048
0.000147266 0.00022324 0.000668979
0.000145672 0.000279463 0.000838475
0.000136691 0.000334671 0.00100934
0.000116963 0.000384135 0.00117673
0.000103855 0.000416911 0.00133512
0.000108529 0.000431077 0.00140422
9.18457e-05 0.000457458 0.00145828
5.77763e-05 0.000505917 0.00153986
2.44222e-05 0.00052842 0.00160064
1.20042e-05 0.000525287 0.00164252
-1.43534e-06 0.000525336 0.00165143
-1.44892e-05 0.000524059 0.00164666
-2.61553e-05 0.000522789 0.00163326
-5.79971e-05 0.000523679 0.00158348
-9.00431e-05 0.000499719 0.00151658
-0.000104696 0.000450907 0.00143122
-9.8328e-05 0.000424723 0.00137664
-0.000109632 0.000410812 0.00130838
-0.000127822 0.000379212 0.00115393
-0.000135864 0.000331807 0.000991832
-0.000137115 0.000279209 0.000826797
-0.00013366 0.000225889 0.000662908
-0.000126727 0.000174221 0.00050373
-0.000109548 0.000125309 0.000353086
-8.61506e-05 0.000105056 0.000286922
-6.83442e-05 8.78708e-05 0.000234873
-5.64172e-05 5.93578e-05 0.000156223
-4.71584e-05 3.59084e-05 9.41763e-05
-4.22091e-05 1.68032e-05 4.4044e-05
0 0 0
5.86045e-05 0 0
6.61688e-05 4.44028e-06 5.88046e-05
8.0433e-05 1.06637e-05 0.000126911
9.85266e-05 2.03124e-05 0.000214017
0.000124336 3.27768e-05 0.000329551
0.000157082 3.77708e-05 0.000411398
0.000185279 3.24983e-05 0.000517271
0.000196002 3.52606e-05 0.000758963
0.000201242 4.30942e-05 0.00101396
0.000198654 5.38388e-05 0.00127576
0.00018406 6.50741e-05 0.00153866
0.000147889 7.31559e-05 0.00179615
0.000130601 5.77883e-05 0.00204156
0.000159904 4.75351e-05 0.00214939
0.000139244 6.54673e-05 0.00223323
7.97036e-05 0.000101505 0.00236059
2.12164e-05 0.000107361 0.00245588
1.24018e-05 8.22328e-05 0.00252202
-2.04365e-06 8.0282e-05 0.00253584
-1.60071e-05 8.02729e-05 0.0025286
-2.38978e-05 8.21863e-05 0.00250796
-8.01597e-05 0.000106993 0.00242979
-0.000136665 0.000101251 0.00232538
-0.000154625 6.6115e-05 0.00219271
-0.000123561 4.86811e-05 0.00210826
-0.000138452 5.88252e-05 0.00200175
-0.000172284 7.4127e-05 0.00176234
-0.000185452 6.67775e-05 0.00151301
-0.000187443 5.6758e-05 0.00125916
-0.000182429 4.77476e-05 0.00100607
-0.000172864 4.22261e-05 0.000758271
-0.00014731 4.19988e-05 0.0005214
-0.00011775 4.77749e-05 0.000416496
-9.39999e-05 4.24435e-05 0.000333872
-7.69031e-05 2.85914e-05 0.000216116
-6.32405e-05 1.66745e-05 0.000127811
-5.59653e-05 7.59211e-06 5.9118e-05
0 0 0
6.31295e-05 0 0
7.21992e-05 -1.13145e-05 6.5614e-05
8.93266e-05 -2.29734e-05 0.000143782
0.000109379 -3.46119e-05 0.000249534
0.000131895 -4.53951e-05 0.000402672
0.000143622 -5.14546e-05 0.000526718
0.000184755 -0.000167318 0.000683084
0.000200416 -0.000348206 0.00103634
0.000208559 -0.000484568 0.00140148
0.000206546 -0.000610446 0.00177057
0.000188986 -0.000728492 0.00213769
0.00012967 -0.000822383 0.00249514
0.000107558 -0.000822184 0.00283875
0.000193467 -0.000814242 0.00299184
0.000173363 -0.000903095 0.00310953
8.41988e-05 -0.0010763 0.00329211
-4.70197e-06 -0.00112225 0.0034297
8.13093e-06 -0.00104104 0.00352636
-2.00551e-06 -0.00103162 0.00354564
-1.17284e-05 -0.00102865 0.0035359
1.759e-06 -0.00103517 0.0035074
-8.45396e-05 -0.00111053 0.00339441
-0.000169961 -0.00106058 0.00324481
-0.000187341 -0.000886327 0.00305588
-0.000100936 -0.00079779 0.00293767
-0.000120576 -0.000805304 0.00278634
-0.000176871 -0.000806037 0.00245068
-0.000192658 -0.000714781 0.00210441
-0.000193732 -0.000599733 0.00175
-0.000185477 -0.000476023 0.00139334
-0.000170996 -0.000339572 0.00103837
-0.000133816 -0.000155147 0.000690516
-0.000126314 -3.86727e-05 0.00053329
-0.000105374 -3.43399e-05 0.000406777
-8.60148e-05 -2.51525e-05 0.000250677
-6.93651e-05 -1.61106e-05 0.000143936
-6.05433e-05 -7.72609e-06 6.55495e-05
0 0 0
5.74343e-05 0 0
6.61662e-05 -3.01213e-05 6.07282e-05
8.29508e-05 -6.38277e-05 0.000134229
0.00010282 -0.000103188 0.000237504
0.000123879 -0.000141255 0.000400697
2.51636e-05 -0.000132776 0.000573936
9.17263e-05 -0.000167221 0.000773513
0.000129734 -0.0002401 0.00122986
0.00014318 -0.000318263 0.00167947
0.000145168 -0.000399101 0.00212589
0.000139815 -0.000479703 0.00256555
0.000127733 -0.000557155 0.00298761
0.000113655 -0.000627917 0.00337392
0.000102907 -0.000659252 0.00354467
8.52785e-05 -0.000687455 0.00369776
6.00689e-05 -0.000733573 0.00394601
3.50671e-05 -0.00076527 0.00411478
1.69601e-05 -0.000782988 0.00420813
-8.70956e-07 -0.000786871 0.00422834
-1.83642e-05 -0.000784882 0.00421714
-3.58104e-05 -0.000779109 0.00418626
-5.91475e-05 -0.000757996 0.00407376
-8.21263e-05 -0.000723872 0.00389129
-9.79065e-05 -0.000676616 0.00363667
-0.000107439 -0.00064837 0.00348339
-0.000119788 -0.000617328 0.00331437
-0.000129982 -0.000548062 0.00293659
-0.000133863 -0.000472947 0.00252755
-0.000130708 -0.000395119 0.00210308
-0.000116339 -0.000317071 0.00167188
-7.83672e-05 -0.000241091 0.00123518
-1.74067e-05 -0.000167682 0.000785921
-0.00012163 -0.000126251 0.000580456
-9.98013e-05 -0.000130666 0.000403512
-8.0173e-05 -9.26901e-05 0.000237908
-6.37223e-05 -5.60511e-05 0.000134015
-5.51861e-05 -2.60504e-05 6.05106e-05
0 0 0
4.22912e-05 0 0
4.90497e-05 -4.2067e-05 4.46678e-05
6.26129e-05 -9.05042e-05 9.89142e-05
8.24068e-05 -0.000151653 0.000174953
0.000129867 -0.000231052 0.000290443
-1.94767e-05 -0.00029345 0.000389522
4.72023e-05 -0.000275279 7.35626e-05
8.33136e-05 -0.000313608 8.2532e-05
9.57245e-05 -0.000390533 0.000111932
9.81088e-05 -0.000480534 0.000141593
9.47094e-05 -0.00057324 0.000170822
8.65006e-05 -0.000662871 0.000198881
7.69878e-05 -0.000744716 0.000224555
6.97514e-05 -0.000781086 0.000235896
5.78765e-05 -0.000813987 0.000246058
4.07484e-05 -0.000868389 0.000262508
2.3614e-05 -0.000906346 0.000273647
1.11323e-05 -0.000927865 0.000279748
-1.17871e-06 -0.000932642 0.000281035
-1.32592e-05 -0.000930398 0.000280171
-2.52905e-05 -0.000923489 0.000278063
-4.12951e-05 -0.000898142 0.000270487
-5.692e-05 -0.000857443 0.000258293
-6.75624e-05 -0.000801736 0.000241352
-7.39921e-05 -0.000768762 0.000231177
-8.23617e-05 -0.000732692 0.000219969
-8.93518e-05 -0.000652482 0.000194952
-9.1874e-05 -0.000565495 0.000167894
-8.89437e-05 -0.000475971 0.000139831
-7.64449e-05 -0.00038907 0.000111334
-4.15301e-05 -0.000313917 8.29149e-05
2.11126e-05 -0.000272164 7.43826e-05
-0.000126388 -0.000281579 0.000388732
-7.99951e-05 -0.000218474 0.00029123
-6.05782e-05 -0.000140152 0.000175121
-4.72874e-05 -8.21101e-05 9.87512e-05
-4.06742e-05 -3.76926e-05 4.45107e-05
0 0 0
-3.74571e-08 0 0
-4.36155e-08 -4.20656e-05 -2.83478e-08
-6.08368e-08 -9.05017e-05 -5.6475e-08
-1.0347e-07 -0.00015165 -8.23771e-08
-2.20554e-07 -0.000231055 -9.82593e-08
1.83165e-08 -0.000293457 -8.77535e-08
2.84531e-08 -0.000275287 -7.34687e-09
3.70257e-08 -0.000313617 -4.29714e-10
4.40404e-08 -0.000390539 -1.96627e-10
4.9075e-08 -0.000480539 -1.33116e-10
5.19596e-08 -0.000573243 -7.33501e-11
5.2795e-08 -0.000662871 -1.79815e-11
5.21353e-08 -0.000744715 2.93255e-11
5.12603e-08 -0.000781085 4.76177e-11
4.95496e-08 -0.000813985 6.47739e-11
4.63133e-08 -0.000868386 8.96852e-11
4.24657e-08 -0.000906342 1.0398e-10
3.93374e-08 -0.000927861 1.09534e-10
3.61473e-08 -0.000932638 1.09877e-10
3.29439e-08 -0.000930394 1.06481e-10
2.97897e-08 -0.000923485 1.03685e-10
2.59058e-08 -0.000898138 9.69335e-11
2.23042e-08 -0.00085744 8.74692e-11
1.9733e-08 -0.000801732 7.59867e-11
1.7997e-08 -0.000768759 6.91663e-11
1.56418e-08 -0.000732689 6.49455e-11
1.2989e-08 -0.00065248 5.5545e-11
1.06448e-08 -0.000565493 4.66862e-11
8.53369e-09 -0.000475969 3.91425e-11
6.55574e-09 -0.000389068 3.31498e-11
4.58934e-09 -0.000313916 4.43699e-11
2.39235e-09 -0.000272162 5.64508e-10
-2.8671e-07 -0.000281577 5.00824e-09
-1.17684e-07 -0.000218469 3.33387e-08
-5.70147e-08 -0.000140152 3.69505e-08
-3.2672e-08 -8.21108e-05 2.68011e-08
-2.39932e-08 -3.76931e-05 1.35753e-08
0 0 0
-4.23646e-05 0 0
-4.91356e-05 -3.01149e-05 -4.4723e-05
-6.27344e-05 -6.3813e-05 -9.90237e-05
-8.26194e-05 -0.000103161 -0.000175111
-0.000130317 -0.000141217 -0.000290629
1.95092e-05 -0.000132786 -0.000389687
-4.71475e-05 -0.000167238 -7.35857e-05
-8.32397e-05 -0.000240117 -8.25417e-05
-9.56358e-05 -0.000318276 -0.00011194
-9.80099e-05 -0.00039911 -0.000141598
-9.46048e-05 -0.000479708 -0.000170825
-8.63945e-05 -0.000557157 -0.000198881
-7.68833e-05 -0.000627916 -0.000224554
-6.96485e-05 -0.000659248 -0.000235894
-5.77773e-05 -0.00068745 -0.000246055
-4.06559e-05 -0.000733567 -0.000262505
-2.35294e-05 -0.000765263 -0.000273643
-1.1054e-05 -0.00078298 -0.000279744
1.2505e-06 -0.000786863 -0.000281031
1.33245e-05 -0.000784874 -0.000280167
2.53496e-05 -0.000779102 -0.000278059
4.13464e-05 -0.000757989 -0.000270483
5.69642e-05 -0.000723865 -0.00025829
6.76015e-05 -0.00067661 -0.00024135
7.40276e-05 -0.000648364 -0.000231174
8.23924e-05 -0.000617322 -0.000219967
8.93774e-05 -0.000548058 -0.00019495
9.1895e-05 -0.000472943 -0.000167893
8.89605e-05 -0.000395115 -0.00013983
7.6458e-05 -0.000317068 -0.000111333
4.15397e-05 -0.000241088 -8.29138e-05
-2.11069e-05 -0.000167678 -7.43807e-05
0.000125821 -0.000126243 -0.000388723
7.9754e-05 -0.000130706 -0.000291168
6.04634e-05 -9.27146e-05 -0.000175049
4.72224e-05 -5.60627e-05 -9.86989e-05
4.06267e-05 -2.6055e-05 -4.44841e-05
0 0 0
-5.75044e-05 0 0
-6.62479e-05 -1.13012e-05 -6.07808e-05
-8.30661e-05 -2.29407e-05 -0.000134333
-0.000103027 -3.4537e-05 -0.000237654
-0.000124377 -4.5189e-05 -0.000400872
-2.51415e-05 -5.09494e-05 -0.000574087
-9.16747e-05 -0.000166855 -0.000773652
-0.000129661 -0.000347774 -0.00122998
-0.000143092 -0.000484187 -0.00167956
-0.000145069 -0.000610128 -0.00212595
-0.000139711 -0.000728244 -0.00256559
-0.000127628 -0.000822211 -0.00298762
-0.000113551 -0.000822095 -0.00337391
-0.000102805 -0.000814191 -0.00354464
-8.51803e-05 -0.00090308 -0.00369773
-5.99775e-05 -0.00107636 -0.00394596
-3.49836e-05 -0.00112237 -0.00411473
-1.68828e-05 -0.00104123 -0.00420807
9.41771e-07 -0.00103183 -0.00422829
1.84287e-05 -0.00102891 -0.00421709
3.58685e-05 -0.00103546 -0.00418622
5.91981e-05 -0.00111089 -0.00407372
8.21701e-05 -0.00106098 -0.00389125
9.79453e-05 -0.000886733 -0.00363664
0.000107474 -0.000798199 -0.00348336
0.000119818 -0.000805742 -0.00331434
0.000130007 -0.000806532 -0.00293657
0.000133884 -0.000715305 -0.00252753
0.000130725 -0.000600278 -0.00210307
0.000116352 -0.000476583 -0.00167187
7.83773e-05 -0.000340142 -0.00123517
1.7416e-05 -0.000155715 -0.000785913
0.000121015 -3.92875e-05 -0.000580448
9.95679e-05 -3.45806e-05 -0.000403452
8.00647e-05 -2.52308e-05 -0.000237839
6.36608e-05 -1.61405e-05 -0.000133965
5.51409e-05 -7.73704e-06 -6.04852e-05
0 0 0
-6.31926e-05 0 0
-7.22709e-05 4.45601e-06 -6.56621e-05
-8.94205e-05 1.07e-05 -0.000143877
-0.000109521 2.03833e-05 -0.000249672
-0.000132095 3.29174e-05 -0.000402839
-0.000143643 3.79757e-05 -0.000526885
-0.000184719 3.27057e-05 -0.000683246
-0.00020037 3.54461e-05 -0.00103649
-0.000208503 4.32555e-05 -0.0014016
-0.000206483 5.39719e-05 -0.00177066
-0.000188921 6.51762e-05 -0.00213775
-0.000129606 7.32252e-05 -0.00249517
-0.000107494 5.78256e-05 -0.00283874
-0.000193401 4.7556e-05 -0.00299182
-0.000173301 6.5471e-05 -0.00310951
-8.41422e-05 0.000101477 -0.00329206
4.75747e-06 0.000107303 -0.00342964
-8.0821e-06 8.21458e-05 -0.00352629
2.04885e-06 8.01819e-05 -0.00354557
1.17651e-05 8.01491e-05 -0.00353583
-1.73311e-06 8.2052e-05 -0.00350733
8.45699e-05 0.000106843 -0.00339433
0.00017 0.000101085 -0.00324473
0.000187377 6.59288e-05 -0.0030558
0.000100943 4.8485e-05 -0.0029376
0.000120578 5.86264e-05 -0.00278627
0.000176882 7.39242e-05 -0.0024506
0.000192669 6.65666e-05 -0.00210434
0.000193741 5.65399e-05 -0.00174993
0.000185485 4.75234e-05 -0.00139327
0.000171007 4.1996e-05 -0.00103831
0.000133778 4.17588e-05 -0.000690454
0.000126074 4.75419e-05 -0.000533229
0.000105222 4.22914e-05 -0.000406705
8.59307e-05 2.85231e-05 -0.000250611
6.9313e-05 1.66436e-05 -0.00014389
6.05035e-05 7.57982e-06 -6.55262e-05
0 0 0
-5.86512e-05 0 0
-6.62192e-05 1.39618e-05 -5.88413e-05
-8.04916e-05 3.05124e-05 -0.000126984
-9.85977e-05 5.19777e-05 -0.000214124
-0.000124407 7.93552e-05 -0.000329684
-0.000157098 9.6498e-05 -0.000411537
-0.000185265 0.000117373 -0.000517409
-0.000195979 0.000168755 -0.000759089
-0.000201214 0.000223327 -0.00101406
-0.000198621 0.000279534 -0.00127584
-0.000184027 0.000334724 -0.00153872
-0.000147857 0.000384169 -0.00179617
-0.000130569 0.000416927 -0.00204156
-0.000159871 0.000431084 -0.00214938
-0.000139214 0.000457456 -0.00223321
-7.96763e-05 0.000505898 -0.00236056
-2.11899e-05 0.000528385 -0.00245583
-1.23788e-05 0.000525237 -0.00252196
2.06335e-06 0.000525279 -0.00253577
1.6023e-05 0.000523991 -0.00252854
2.39085e-05 0.000522716 -0.00250789
8.01734e-05 0.0005236 -0.00242971
0.000136684 0.000499632 -0.00232531
0.000154641 0.00045081 -0.00219263
0.000123562 0.000424621 -0.00210818
0.000138449 0.000410709 -0.00200167
0.000172286 0.00037911 -0.00176226
0.000185455 0.000331703 -0.00151293
0.000187446 0.000279101 -0.00125908
0.000182431 0.000225779 -0.00100599
0.000172865 0.000174109 -0.000758194
0.000147286 0.000125195 -0.000521328
0.000117671 0.000104948 -0.000416427
9.39314e-05 8.77868e-05 -0.000333806
7.68564e-05 5.93111e-05 -0.000216063
6.32072e-05 3.5884e-05 -0.000127776
5.59378e-05 1.67927e-05 -5.91003e-05
0 0 0
-4.43681e-05 0 0
-4.95599e-05 2.01188e-05 -4.36887e-05
-5.93264e-05 4.29976e-05 -9.32914e-05
-7.20824e-05 7.10724e-05 -0.000154477
-9.14431e-05 0.000105855 -0.000231885
-0.000116946 0.000128095 -0.000283777
-0.000135807 0.000156638 -0.000350926
-0.000143561 0.000223385 -0.000505135
-0.000147252 0.000293999 -0.000669052
-0.000145655 0.000366449 -0.000838531
-0.000136673 0.000437985 -0.00100938
-0.000116946 0.000504582 -0.00117675
-0.000103838 0.000559925 -0.00133512
-0.000108512 0.000584484 -0.00140422
-9.1831e-05 0.000612027 -0.00145827
-5.77631e-05 0.000659266 -0.00153983
-2.44097e-05 0.000687329 -0.00160061
-1.19935e-05 0.000696571 -0.00164248
1.44427e-06 0.000698675 -0.00165138
1.44962e-05 0.0006969 -0.00164661
2.61599e-05 0.000693118 -0.00163321
5.80033e-05 0.0006809 -0.00158342
9.00515e-05 0.000650698 -0.00151652
0.000104703 0.000602441 -0.00143117
9.83279e-05 0.000574908 -0.00137658
0.00010963 0.000550747 -0.00130832
0.000127822 0.00049712 -0.00115387
0.000135865 0.000433084 -0.000991773
0.000137115 0.000364617 -0.000826738
0.00013366 0.000295406 -0.00066285
0.000126726 0.000227844 -0.000503674
0.000109536 0.000163562 -0.000353033
8.61205e-05 0.000135704 -0.000286872
6.83132e-05 0.000113529 -0.000234826
5.63928e-05 7.77919e-05 -0.000156187
4.71389e-05 4.79445e-05 -9.41525e-05
4.21922e-05 2.27342e-05 -4.40322e-05
0 0 0
-2.37331e-05 0 0
-2.63332e-05 2.31079e-05 -2.31503e-05
-3.12175e-05 4.89624e-05 -4.91406e-05
-3.76773e-05 7.99711e-05 -8.05844e-05
-4.76661e-05 0.000117788 -0.000119464
-6.07655e-05 0.000141829 -0.000144925
-7.02338e-05 0.000172506 -0.000177758
-7.43584e-05 0.00024357 -0.000253309
-7.63336e-05 0.00031899 -0.000333827
-7.56594e-05 0.000396512 -0.000417301
-7.15162e-05 0.000473381 -0.000501549
-6.28329e-05 0.000546019 -0.000584025
-5.57192e-05 0.000609781 -0.000661791
-5.42473e-05 0.000637997 -0.000695601
-4.5124e-05 0.000665395 -0.000722072
-2.9795e-05 0.000710794 -0.00076192
-1.48041e-05 0.000740452 -0.000791626
-7.07934e-06 0.000754682 -0.0008121
7.13034e-07 0.000757772 -0.000816481
8.29771e-06 0.000755837 -0.000814118
1.56179e-05 0.000750924 -0.000807512
2.98581e-05 0.000733485 -0.000783121
4.41895e-05 0.000701449 -0.000750346
5.2245e-05 0.000654769 -0.00070854
5.27388e-05 0.000627304 -0.000681763
5.88992e-05 0.000599534 -0.000648352
6.68259e-05 0.000537687 -0.00057252
7.05092e-05 0.000467779 -0.000492627
7.10253e-05 0.000394117 -0.000411223
6.9187e-05 0.000319918 -0.000330496
6.54803e-05 0.000247573 -0.000252351
5.68383e-05 0.000178967 -0.000178675
4.47861e-05 0.000148994 -0.000146403
3.56025e-05 0.000125052 -0.000120946
2.95943e-05 8.6361e-05 -8.1532e-05
2.49921e-05 5.36826e-05 -4.9659e-05
2.25277e-05 2.56085e-05 -2.33706e-05
0 0 0
0 0 0
0 0 0
0 0 0
0 0 0
0 0 0
0 0 0
0 0 0
0 0 0
0 0 0
0 0 0
0 0 0
0 0 0
0 0 0
0 0 0
0 0 0
0 0 0
0 0 0
0 0 0
0 0 0
0 0 0
0 0 0
0 0 0
0 0 0
0 0 0
0 0 0
0 0 0
0 0 0
0 0 0
0 0 0
0 0 0
0 0 0
0 0 0
0 0 0
0 0 0
0 0 0
0 0 0
0 0 0
0 0 0
0 0 0
0 8.52724e-05 0
0 0.000181745 0
0 0.000299579 0
0 0.000446264 0
0 0.000541662 0
0 0.000663892 0
0 0.000945764 0
0 0.00124621 0
0 0.00155697 0
0 0.00186898 0
0 0.00217144 0
0 0.00245149 0
0 0.00257383 0
0 0.0026754 0
0 0.00283304 0
0 0.00294614 0
0 0.00301739 0
0 0.00303271 0
0 0.00302427 0
0 0.00300103 0
0 0.00291592 0
0 0.00279238 0
0 0.00262881 0
0 0.00252683 0
0 0.00240662 0
0 0.00213529 0
0 0.00184466 0
0 0.00154621 0
0 0.0012493 0
0 0.000961595 0
0 0.000690007 0
0 0.000570775 0
0 0.000475727 0
0 0.000325319 0
0 0.000200693 0
0 9.52929e-05 0
0 0 0
8.88086e-05 0 0
9.9466e-05 7.48344e-05 2.28047e-05
0.000119834 0.000161532 4.88804e-05
0.00014741 0.000271547 8.12416e-05
0.000190517 0.000414213 0.000122133
0.000243541 0.00051056 0.000149048
0.000280061 0.000634869 0.000183566
0.000297748 0.000921299 0.000263577
0.000307537 0.00122502 0.000351136
0.000308642 0.00153766 0.000444958
0.000299366 0.00185072 0.000543398
0.000277633 0.00215368 0.000644073
0.000243041 0.00243297 0.00074379
0.000202128 0.00255561 0.000785618
0.000157625 0.00266031 0.000810972
0.000114619 0.00282479 0.000839888
7.43705e-05 0.00293992 0.000862307
3.49457e-05 0.00300865 0.000882042
-2.97763e-06 0.00302336 0.000885564
-3.99611e-05 0.00301496 0.000881864
-7.75477e-05 0.00299234 0.000874868
-0.000114743 0.00290975 0.000849091
-0.000153712 0.0027844 0.000821774
-0.000193444 0.00261452 0.000789465
-0.000229518 0.00250966 0.000763612
-0.000259948 0.00238914 0.000722789
-0.000278824 0.00211841 0.000626931
-0.000286437 0.00182727 0.000530693
-0.000284851 0.00152787 0.000436734
-0.000275704 0.00122933 0.000346983
-0.000259713 0.00093877 0.000262773
-0.000226698 0.000663072 0.000185321
-0.000178405 0.000541852 0.000151545
-0.00013882 0.000445723 0.000124546
-0.000113156 0.000298872 8.27401e-05
-9.4013e-05 0.000181536 4.96916e-05
-8.39494e-05 8.53787e-05 2.31492e-05
0 0 0
0.000166774 0 0
0.000188677 5.33738e-05 4.29909e-05
0.000231225 0.000119264 9.28172e-05
0.000289989 0.000211713 0.000156035
0.000381985 0.000345665 0.000237861
0.000490214 0.000446746 0.000292926
0.000563569 0.000575931 0.000363811
0.00059762 0.000871937 0.000528334
0.000615818 0.00118076 0.000708612
0.000617212 0.00149428 0.000902342
0.000598134 0.00180565 0.00110691
0.000553456 0.00210543 0.00131806
0.000485689 0.00237933 0.0015288
0.000409555 0.00250081 0.00161787
0.000321227 0.00261024 0.00167294
0.000230504 0.00278681 0.0017356
0.000145538 0.0029055 0.00178221
6.8038e-05 0.00296944 0.00182189
-6.48906e-06 0.00298312 0.00182873
-7.917e-05 0.00297505 0.00182085
-0.000153039 0.00295373 0.0018066
-0.000231671 0.00287626 0.00175399
-0.000314004 0.00274808 0.00169704
-0.000392864 0.0025674 0.00162751
-0.000459809 0.00245825 0.0015716
-0.000519387 0.00233875 0.0014848
-0.000558208 0.00207273 0.00128245
-0.00057384 0.00178437 0.00108085
-0.000571341 0.00148656 0.000885826
-0.000554279 0.00118744 0.000700666
-0.000523551 0.000892554 0.000527283
-0.000457388 0.000608375 0.00036772
-0.000358983 0.000482559 0.000298135
-0.000274095 0.000381314 0.000242674
-0.000219029 0.000242126 0.000158779
-0.000178786 0.000141281 9.41953e-05
-0.000157986 6.49065e-05 4.35446e-05
0 0 0
0.000222563 0 0
0.000256221 2.03626e-05 5.78205e-05
0.000323908 5.18983e-05 0.000126423
0.000422315 0.000111346 0.000216999