<?xml version="1.0"?>
<VTKFile type="RectilinearGrid" version="0.1" byte_order="LittleEndian">
<RectilinearGrid WholeExtent="0 37 0 14 0 34">
<Piece Extent="0 37 0 14 0 34">
<PointData>
<DataArray type="Float32" Name="MVP" NumberOfComponents="3" format="ascii">
0 0 0
0 0 0
0 0 0
0 0 0
0 0 0
0 0 0
0 0 0
0 0 0
0 0 0
0 0 0
0 0 0
0 0 0
0 0 0
0 0 0
0 0 0
0 0 0
0 0 0
0 0 0
0 0 0
0 0 0
0 0 0
0 0 0
0 0 0
0 0 0
0 0 0
0 0 0
0 0 0
0 0 0
0 0 0
0 0 0
0 0 0
0 0 0
0 0 0
0 0 0
0 0 0
0 0 0
0 0 0
0 0 0
0 0 0
0 0 6.19981e-05
0 0 0.000130898
0 0 0.000212826
0 0 0.00031217
0 0 0.000375506
0 0 0.000456908
0 0 0.000646762
0 0 0.000849403
0 0 0.00105862
0 0 0.00126672
0 0 0.0014639
0 0 0.0016378
0 0 0.00171488
0 0 0.00178926
0 0 0.00191288
0 0 0.00199535
0 0 0.00203747
0 0 0.00204767
0 0 0.00204607
0 0 0.00203435
0 0 0.00198952
0 0 0.00190498
0 0 0.00178011
0 0 0.00170554
0 0 0.0016287
0 0 0.00145607
0 0 0.0012607
0 0 0.00105468
0 0 0.000847502
0 0 0.000646613
0 0 0.000458081
0 0 0.000377033
0 0 0.000313663
0 0 0.000213853
0 0 0.000131501
0 0 6.2269e-05
0 0 0
0 0 0
0 0 0.000116212
0 0 0.0002463
0 0 0.000402638
0 0 0.000593667
0 0 0.000715684
0 0 0.000872482
0 0 0.00124035
0 0 0.00163315
0 0 0.00203865
0 0 0.0024412
0 0 0.00282001
0 0 0.00314598
0 0 0.00329064
0 0 0.00343978
0 0 0.00369177
0 0 0.00385241
0 0 0.0039234
0 0 0.00394108
0 0 0.00393798
0 0 0.00391736
0 0 0.00384115
0 0 0.00367655
0 0 0.00342227
0 0 0.00327284
0 0 0.00312864
0 0 0.00280508
0 0 0.00242983
0 0 0.00203137
0 0 0.00162988
0 0 0.00124047
0 0 0.000875036
0 0 0.000718811
0 0 0.000596608
0 0 0.000404541
0 0 0.000247363
0 0 0.000116674
0 0 0
0 0 0
0 0 0.000154388
0 0 0.000329338
0 0 0.000543484
0 0 0.000808461
0 0 0.000976928
0 0 0.00118793
0 0 0.00169205
0 0 0.00223312
0 0 0.00279295
0 0 0.00334767
0 0 0.00386353
0 0 0.00428276
0 0 0.00446789
0 0 0.00468864
0 0 0.0050719
0 0 0.00529571
0 0 0.0053625
0 0 0.00538182
0 0 0.00537758
0 0 0.00535422
0 0 0.00528021
0 0 0.00505105
0 0 0.00466498
0 0 0.00444399
0 0 0.00425946
0 0 0.00384346
0 0 0.0033326
0 0 0.0027837
0 0 0.00222961
0 0 0.00169331
0 0 0.00119225
0 0 0.000981704
0 0 0.000812611
0 0 0.000545865
0 0 0.000330545
0 0 0.000154878
0 0 0
0 0 0
0 0 0.000167704
0 0 0.000360933
0 0 0.000603822
0 0 0.000909951
0 0 0.00110081
0 0 0.00129455
0 0 0.00180351
0 0 0.00237016
0 0 0.00296564
0 0 0.00355764
0 0 0.00410218
0 0 0.00448863
0 0 0.00465032
0 0 0.00492034
0 0 0.00540178
0 0 0.00564402
0 0 0.00564718
0 0 0.00566175
0 0 0.00565724
0 0 0.00563838
0 0 0.00562733
0 0 0.0053795
0 0 0.0048957
0 0 0.00462575
0 0 0.00446456
0 0 0.00408132
0 0 0.00354235
0 0 0.00295704
0 0 0.00236829
0 0 0.00180719
0 0 0.00130115
0 0 0.00110698
0 0 0.000914486
0 0 0.000605892
0 0 0.00036178
0 0 0.00016799
0 0 0
0 0 0
0 0 0.0001533
0 0 0.000331863
0 0 0.000561655
0 0 0.00086396
0 0 0.00107553
0 0 0.00110854
0 0 0.00137597
0 0 0.00176621
0 0 0.00220058
0 0 0.00264185
0 0 0.0030668
0 0 0.00345465
0 0 0.00362705
0 0 0.00378306
0 0 0.00404149
0 0 0.00422354
0 0 0.00432977
0 0 0.00435527
0 0 0.00435165
0 0 0.00432271
0 0 0.00421032
0 0 0.0040239
0 0 0.00376347
0 0 0.00360743
0 0 0.00343563
0 0 0.00305073
0 0 0.00263045
0 0 0.00219484
0 0 0.0017664
0 0 0.00138144
0 0 0.00111698
0 0 0.00108246
0 0 0.000868095
0 0 0.000563292
0 0 0.000332445
0 0 0.000153465
0 0 0
0 0 0
0 0 0.000113192
0 0 0.000246324
0 0 0.0004222
0 0 0.000671739
0 0 0.000898487
0 0 0.000886856
0 0 0.00104921
0 0 0.00132799
0 0 0.00164739
0 0 0.00197428
0 0 0.00228956
0 0 0.00257731
0 0 0.00270532
0 0 0.00282129
0 0 0.00301382
0 0 0.0031498
0 0 0.00322925
0 0 0.00324831
0 0 0.00324547
0 0 0.00322372
0 0 0.00313944
0 0 0.00300003
0 0 0.00280592
0 0 0.00268992
0 0 0.00256237
0 0 0.00227689
0 0 0.00196524
0 0 0.00164272
0 0 0.00132779
0 0 0.00105276
0 0 0.000891779
0 0 0.000901952
0 0 0.00067431
0 0 0.000423317
0 0 0.000246733
0 0 0.000113309
0 0 0
0 0 0
0 0 -2.23122e-08
0 0 -4.94895e-08
0 0 -9.05356e-08
0 0 -1.66652e-07
0 0 -2.53647e-07
0 0 -2.48938e-07
0 0 -2.24523e-07
0 0 -1.92042e-07
0 0 -1.53585e-07
0 0 -1.11118e-07
0 0 -6.67926e-08
0 0 -2.26081e-08
0 0 -1.11044e-09
0 0 1.9813e-08
0 0 5.95315e-08
0 0 9.55311e-08
0 0 1.2744e-07
0 0 1.41871e-07
0 0 1.67711e-07
0 0 1.79186e-07
0 0 1.99358e-07
0 0 2.16357e-07
0 0 2.30606e-07
0 0 2.36731e-07
0 0 2.42112e-07
0 0 2.51131e-07
0 0 2.58638e-07
0 0 2.6501e-07
0 0 2.70477e-07
0 0 2.75054e-07
0 0 2.783e-07
0 0 2.78713e-07
0 0 1.67791e-07
0 0 7.86806e-08
0 0 3.74148e-08
0 0 1.53053e-08
0 0 0
0 0 0
0 0 -0.000113235
0 0 -0.000246421
0 0 -0.000422379
0 0 -0.000672075
0 0 -0.000898998
0 0 -0.000887358
0 0 -0.00104966
0 0 -0.00132837
0 0 -0.0016477
0 0 -0.00197451
0 0 -0.00228969
0 0 -0.00257735
0 0 -0.00270532
0 0 -0.00282125
0 0 -0.0030137
0 0 -0.0031496
0 0 -0.00322899
0 0 -0.00324802
0 0 -0.00324513
0 0 -0.00322336
0 0 -0.00313903
0 0 -0.0029996
0 0 -0.00280546
0 0 -0.00268945
0 0 -0.00256188
0 0 -0.00227639
0 0 -0.00196472
0 0 -0.00164219
0 0 -0.00132725
0 0 -0.00105221
0 0 -0.000891219
0 0 -0.00090139
0 0 -0.000673968
0 0 -0.000423159
0 0 -0.000246658
0 0 -0.000113278
0 0 0
0 0 0
0 0 -0.000153342
0 0 -0.000331956
0 0 -0.000561825
0 0 -0.000864282
0 0 -0.00107605
0 0 -0.00110905
0 0 -0.00137643
0 0 -0.0017666
0 0 -0.00220089
0 0 -0.00264207
0 0 -0.00306693
0 0 -0.00345469
0 0 -0.00362705
0 0 -0.00378302
0 0 -0.00404137
0 0 -0.00422334
0 0 -0.00432951
0 0 -0.00435498
0 0 -0.00435131
0 0 -0.00432235
0 0 -0.00420991
0 0 -0.00402346
0 0 -0.003763
0 0 -0.00360695
0 0 -0.00343514
0 0 -0.00305022
0 0 -0.00262993
0 0 -0.00219431
0 0 -0.00176586
0 0 -0.00138088
0 0 -0.00111642
0 0 -0.00108188
0 0 -0.000867766
0 0 -0.000563142
0 0 -0.000332374
0 0 -0.000153436
0 0 0
0 0 0
0 0 -0.000167741
0 0 -0.000361014
0 0 -0.000603965
0 0 -0.000910194
0 0 -0.00110113
0 0 -0.00129487
0 0 -0.0018038
0 0 -0.0023704
0 0 -0.00296583
0 0 -0.00355778
0 0 -0.00410225
0 0 -0.00448865
0 0 -0.00465032
0 0 -0.0049203
0 0 -0.00540169
0 0 -0.00564389
0 0 -0.00564701
0 0 -0.00566156
0 0 -0.00565702
0 0 -0.00563814
0 0 -0.00562708
0 0 -0.00537922
0 0 -0.00489541
0 0 -0.00462544
0 0 -0.00446425
0 0 -0.00408101
0 0 -0.00354204
0 0 -0.00295673
0 0 -0.00236796
0 0 -0.00180686
0 0 -0.0013008
0 0 -0.00110665
0 0 -0.00091425
0 0 -0.000605772
0 0 -0.00036172
0 0 -0.000167965
0 0 0
0 0 0
0 0 -0.000154415
0 0 -0.000329395
0 0 -0.000543576
0 0 -0.0008086
0 0 -0.000977091
0 0 -0.00118809
0 0 -0.0016922
0 0 -0.00223324
0 0 -0.00279304
0 0 -0.00334774
0 0 -0.00386356
0 0 -0.00428277
0 0 -0.00446788
0 0 -0.00468862
0 0 -0.00507185
0 0 -0.00529564
0 0 -0.0053624
0 0 -0.00538172
0 0 -0.00537746
0 0 -0.0053541
0 0 -0.00528008
0 0 -0.00505091
0 0 -0.00466483
0 0 -0.00444383
0 0 -0.00425931
0 0 -0.00384331
0 0 -0.00333245
0 0 -0.00278355
0 0 -0.00222946
0 0 -0.00169315
0 0 -0.00119209
0 0 -0.000981554
0 0 -0.000812491
0 0 -0.000545795
0 0 -0.000330507
0 0 -0.000154861
0 0 0
0 0 0
0 0 -0.000116229
0 0 -0.000246335
0 0 -0.000402693
0 0 -0.000593744
0 0 -0.000715769
0 0 -0.000872568
0 0 -0.00124043
0 0 -0.00163322
0 0 -0.0020387
0 0 -0.00244124
0 0 -0.00282003
0 0 -0.00314598
0 0 -0.00329063
0 0 -0.00343977
0 0 -0.00369174
0 0 -0.00385237
0 0 -0.00392335
0 0 -0.00394102
0 0 -0.00393792
0 0 -0.0039173
0 0 -0.00384109
0 0 -0.00367648
0 0 -0.0034222
0 0 -0.00327276
0 0 -0.00312856
0 0 -0.00280501
0 0 -0.00242976
0 0 -0.00203129
0 0 -0.0016298
0 0 -0.0012404
0 0 -0.000874962
0 0 -0.00071874
0 0 -0.000596548
0 0 -0.000404502
0 0 -0.000247341
0 0 -0.000116664
0 0 0
0 0 0
0 0 -6.20064e-05
0 0 -0.000130915
0 0 -0.000212852
0 0 -0.000312205
0 0 -0.000375544
0 0 -0.000456946
0 0 -0.000646797
0 0 -0.000849432
0 0 -0.00105865
0 0 -0.00126673
0 0 -0.00146391
0 0 -0.0016378
0 0 -0.00171488
0 0 -0.00178926
0 0 -0.00191287
0 0 -0.00199533
0 0 -0.00203745
0 0 -0.00204765
0 0 -0.00204604
0 0 -0.00203432
0 0 -0.00198949
0 0 -0.00190495
0 0 -0.00178008
0 0 -0.00170551
0 0 -0.00162867
0 0 -0.00145603
0 0 -0.00126066
0 0 -0.00105465
0 0 -0.000847471
0 0 -0.000646582
0 0 -0.000458051
0 0 -0.000377004
0 0 -0.000313637
0 0 -0.000213836
0 0 -0.000131491
0 0 -6.22643e-05
0 0 0
0 0 0
0 0 0
0 0 0
0 0 0
0 0 0
0 0 0
0 0 0
0 0 0
0 0 0
0 0 0
0 0 0
0 0 0
0 0 0
0 0 0
0 0 0
0 0 0
0 0 0
0 0 0
0 0 0
0 0 0
0 0 0
0 0 0
0 0 0
0 0 0
0 0 0
0 0 0
0 0 0
0 0 0
0 0 0
0 0 0
0 0 0
0 0 0
0 0 0
0 0 0
0 0 0
0 0 0
0 0 0
0 0 0
0 0 0
0 6.22349e-05 0
0 0.000131581 0
0 0.00021435 0
0 0.000315059 0
0 0.000379285 0
0 0.000461704 0
0 0.000653933 0
0 0.000859218 0
0 0.00107118 0
0 0.00128198 0
0 0.00148173 0
0 0.00165795 0
0 0.00173606 0
0 0.00181139 0
0 0.0019366 0
0 0.00202022 0
0 0.00206306 0
0 0.00207344 0
0 0.00207186 0
0 0.00205999 0
0 0.00201454 0
0 0.00192898 0
0 0.00180274 0
0 0.00172737 0
0 0.00164967 0
0 0.00147514 0
0 0.00127776 0
0 0.00106972 0
0 0.000860594 0
0 0.000657886 0
0 0.00046765 0
0 0.000385755 0
0 0.000321527 0
0 0.000219929 0
0 0.00013565 0
0 6.43749e-05 0
0 0 0
6.27662e-05 0 0
6.97693e-05 5.43493e-05 6.31104e-05
8.29926e-05 0.000115889 0.000134011
0.000100676 0.000191069 0.000219883
0.000128215 0.000284103 0.000326245
0.000164474 0.000343698 0.000396032
0.000191687 0.000420156 0.000486722
0.000204574 0.000600663 0.000697662
0.000211164 0.000793551 0.000923864
0.000209987 0.000992632 0.00115912
0.000199002 0.00118984 0.0013967
0.000175615 0.00137404 0.00162911
0.000155784 0.00152844 0.00184798
0.000150332 0.00159706 0.00194335
0.000125085 0.00167277 0.00201874
8.38003e-05 0.00180274 0.00213363
4.33282e-05 0.00188207 0.00222048
2.14965e-05 0.00191164 0.00228169
-6.14413e-07 0.0019193 0.00229616
-2.25496e-05 0.00191784 0.00229419
-4.40385e-05 0.00190879 0.00227787
-8.38829e-05 0.00187678 0.00221338
-0.000124332 0.00179569 0.00212397
-0.000148662 0.00166488 0.00200745
-0.000153247 0.0015892 0.00193182
-0.000172248 0.00152095 0.0018368
-0.000194983 0.0013681 0.00161964
-0.000205578 0.00118615 0.00138952
-0.000206645 0.000991623 0.00115447
-0.000200227 0.000795341 0.000921659
-0.000187772 0.000605034 0.000697531
-0.000161336 0.000426521 0.000488157
-0.000126005 0.000350551 0.00039788
-9.9146e-05 0.000290906 0.000328014
-8.18224e-05 0.000196899 0.000221046
-6.88138e-05 0.000120123 0.000134675
-6.19113e-05 5.65714e-05 6.34047e-05
0 0 0
0.000117566 0 0
0.000131635 3.81194e-05 0.000118935
0.000158268 8.31435e-05 0.000254003
0.000193503 0.000141558 0.000420632
0.000246959 0.000216797 0.000631464
0.000316795 0.000264219 0.000772764
0.000371399 0.000319589 0.000957267
0.000396492 0.000458601 0.00138778
0.000409188 0.000609778 0.00184878
0.000406134 0.000767007 0.00232688
0.000382224 0.000921979 0.00280896
0.000329191 0.00106165 0.0032806
0.000292363 0.00115727 0.00372596
0.000301217 0.00119879 0.00392061
0.000254736 0.00127136 0.00407446
0.00016313 0.00140423 0.00430951
7.3224e-05 0.00146857 0.00448691
3.73918e-05 0.00146508 0.00461168
-1.26085e-06 0.00146691 0.00464098
-3.95824e-05 0.00146579 0.00463701
-7.47668e-05 0.0014629 0.00460396
-0.000163405 0.00146446 0.00447257
-0.000253313 0.00139884 0.00429007
-0.000298037 0.00126561 0.00405188
-0.000287639 0.0011932 0.0038976
-0.000322878 0.00115194 0.0037037
-0.000374584 0.00105746 0.00326179
-0.000397691 0.000919672 0.00279483
-0.000400499 0.000767057 0.00231795
-0.000388126 0.000612415 0.00184484
-0.000363911 0.000463762 0.00138801
-0.000310909 0.000326755 0.000960452
-0.000242926 0.000271787 0.000776613
-0.000190764 0.0002242 0.000634984
-0.000156176 0.000147837 0.000422784
-0.000129922 8.76782e-05 0.000255165
-0.00011603 4.04922e-05 0.000119431
0 0 0
0.000155992 0 0
0.00017681 1.30039e-05 0.000159804
0.000216535 3.11695e-05 0.000344777
0.000268186 6.0232e-05 0.000580886
0.000340909 0.000102472 0.000892915
0.000426438 0.00012592 0.00111254
0.000509069 0.000110105 0.00139939
0.000546154 0.000118207 0.00207435
0.000564836 0.000146944 0.00279293
0.000559543 0.000185594 0.00353244
0.000520431 0.000225722 0.00427455
0.000423527 0.00025706 0.00499979
0.000374306 0.000226675 0.00568856
0.000445398 0.000204306 0.00599152
0.000386893 0.000254534 0.00622999
0.000227095 0.00035434 0.00659661
6.97105e-05 0.000373948 0.00687376
4.12981e-05 0.000311027 0.00706931
-1.86969e-06 0.000306455 0.00711446
-4.46082e-05 0.000306224 0.00710844
-7.21883e-05 0.000310558 0.00705761
-0.00022768 0.000372879 0.00685203
-0.000384912 0.000353113 0.00656728
-0.000441034 0.000253878 0.00619628
-0.000368198 0.000204028 0.00595733
-0.00041526 0.000226381 0.00565554
-0.000510137 0.000256953 0.00497202
-0.000548009 0.000226505 0.00425401
-0.000552855 0.000187723 0.00352001
-0.000534565 0.000150856 0.00278831
-0.000498807 0.000124304 0.00207609
-0.000418752 0.000118323 0.00140507
-0.000335975 0.000134422 0.00111859
-0.000264905 0.000110564 0.000897917
-0.000214 6.70602e-05 0.000583516
-0.000174706 3.60906e-05 0.00034604
-0.000154092 1.55755e-05 0.000160302
0 0 0
0.000169128 0 0
0.000194907 -2.93108e-05 0.000177697
0.000245126 -5.89816e-05 0.000389049
0.000309345 -8.51741e-05 0.000673523
0.000386143 -9.22074e-05 0.00108104
0.000392787 -4.98612e-05 0.00140448
0.000514852 -0.000369096 0.00181289
0.000572455 -0.000848265 0.00280271
0.000601041 -0.00119781 0.00383529
0.000597288 -0.00151703 0.00487865
0.000549525 -0.00181562 0.00591402
0.000391115 -0.0020521 0.00691921
0.000327764 -0.00204689 0.0078804
0.000544214 -0.00202439 0.00830862
0.000485326 -0.00225141 0.0086429
0.000245715 -0.00269579 0.00916683
6.19625e-06 -0.00281502 0.00956449
3.18524e-05 -0.00260816 0.00984682
-2.10973e-06 -0.0025861 0.00990927
-3.56631e-05 -0.0025843 0.00990122
-9.30306e-06 -0.00260461 0.00983116
-0.000246507 -0.00280795 0.00953531
-0.000482851 -0.00268624 0.00912773
-0.000539199 -0.00224108 0.00859864
-0.000321812 -0.0020142 0.00826403
-0.000382824 -0.00203645 0.00783736
-0.00053857 -0.00204206 0.00688311
-0.000584732 -0.0018072 0.00588786
-0.000587739 -0.00151035 0.00486388
-0.000559348 -0.00119215 0.00383175
-0.000503355 -0.000841808 0.00280833
-0.000385259 -0.000359277 0.00182292
-0.00038224 -3.9405e-05 0.00141243
-0.000306572 -8.33692e-05 0.00108614
-0.000242795 -7.76391e-05 0.000675443
-0.000192885 -5.35065e-05 0.000389724
-0.000167271 -2.6445e-05 0.000177892
0 0 0
0.00015448 0 0
0.000179961 -8.08288e-05 0.000164372
0.00023167 -0.000172163 0.000363038
0.00030505 -0.000280186 0.000640579
0.000427176 -0.000385524 0.001072
7.17746e-05 -0.00035512 0.0015112
0.00027344 -0.000440643 0.00199157
0.000395896 -0.000646533 0.00328491
0.000439688 -0.000866206 0.00456137
0.000446309 -0.00109312 0.00582112
0.000429689 -0.00131901 0.00705684
0.000392264 -0.00153565 0.00824008
0.000348929 -0.00173341 0.00932187
0.00031596 -0.00182109 0.0098004
0.000262053 -0.00190019 0.0102302
0.000185235 -0.00203034 0.0109309
0.000108979 -0.0021213 0.0114153
5.34283e-05 -0.00217414 0.0116942
-1.53337e-06 -0.00218685 0.0117609
-5.61314e-05 -0.00218526 0.0117518
-0.00011097 -0.00217103 0.0116763
-0.000185431 -0.00211547 0.0113818
-0.000259838 -0.00202257 0.0108863
-0.000311744 -0.00189153 0.0101804
-0.000343398 -0.00181241 0.00975057
-0.000384863 -0.00172498 0.00927362
-0.000420288 -0.00152852 0.00819936
-0.000435454 -0.0013139 0.00702763
-0.000427873 -0.00109042 0.00580544
-0.000383638 -0.000865954 0.00455941
-0.000262001 -0.000648207 0.00329491
-6.57677e-05 -0.000441927 0.00200805
-0.000426181 -0.000350612 0.00151904
-0.000303058 -0.000377628 0.00107572
-0.000229727 -0.000272076 0.000641715
-0.000178217 -0.000166079 0.000363324
-0.000152864 -7.76293e-05 0.000164407
0 0 0
0.000114041 0 0
0.000134141 -0.000113945 0.000121122
0.000177231 -0.000247717 0.00026843
0.000251472 -0.000423998 0.00047557
0.000455965 -0.000673523 0.000792938
-2.06869e-05 -0.000899929 0.00107889
0.000164593 -0.000884039 0.00045888
0.000280599 -0.00104212 0.000548576
0.000320976 -0.00131774 0.000748902
0.000328312 -0.00163419 0.000952127
0.000316589 -0.0019582 0.00115199
0.000288995 -0.00227074 0.00134359
0.000257221 -0.00255601 0.0015189
0.000233111 -0.00268292 0.00159643
0.000193662 -0.00279788 0.00166603
0.000137049 -0.00298873 0.00177928
8.0472e-05 -0.00312349 0.00185709
3.9083e-05 -0.00320219 0.00190124
-1.91112e-06 -0.00322105 0.00191145
-4.26187e-05 -0.00321816 0.00190863
-8.34474e-05 -0.00319655 0.00189574
-0.000138614 -0.00311291 0.00184677
-0.000193345 -0.00297463 0.00176552
-0.000231249 -0.00278213 0.00165068
-0.000254351 -0.00266709 0.00158104
-0.000284701 -0.00254061 0.00150395
-0.000310824 -0.00225754 0.00133085
-0.000321576 -0.00194853 0.0011426
-0.000313799 -0.00162875 0.000946665
-0.000273685 -0.00131644 0.00074738
-0.000159475 -0.00104346 0.000550379
2.16958e-05 -0.00088286 0.000461805
-0.000453888 -0.000891352 0.001077
-0.000249806 -0.000663989 0.000793728
-0.000175777 -0.00041508 0.000476089
-0.000132871 -0.000241163 0.00026858
-0.000112873 -0.00011052 0.000121134
0 0 0
-2.41543e-08 0 0
-2.89778e-08 -0.000113944 -1.72073e-08
-4.27178e-08 -0.000247716 -3.39307e-08
-7.74811e-08 -0.000423997 -4.81748e-08
-1.74853e-07 -0.000673526 -5.30659e-08
9.00175e-09 -0.000899934 -3.90971e-08
2.43675e-08 -0.000884044 -2.01963e-08
3.2673e-08 -0.00104212 -2.93068e-09
3.88189e-08 -0.00131775 -1.36505e-09
4.29645e-08 -0.00163419 -8.85925e-10
4.49408e-08 -0.0019582 -4.57439e-10
4.49011e-08 -0.00227074 -6.33824e-11
4.37796e-08 -0.00255601 2.6683e-10
4.26745e-08 -0.00268292 3.95496e-10
4.06005e-08 -0.00279788 5.08619e-10
3.69342e-08 -0.00298873 6.68156e-10
3.2877e-08 -0.00312348 7.49414e-10
2.9838e-08 -0.00320219 7.67331e-10
2.68171e-08 -0.00322104 7.57628e-10
2.39113e-08 -0.00321815 7.07882e-10
2.11144e-08 -0.00319655 6.74557e-10
1.79078e-08 -0.00311291 5.98926e-10
1.51115e-08 -0.00297463 5.05497e-10
1.30569e-08 -0.00278213 3.96726e-10
1.15145e-08 -0.00266709 3.3542e-10
9.70916e-09 -0.00254061 2.97218e-10
8.12395e-09 -0.00225754 2.16942e-10
6.91271e-09 -0.00194853 1.38083e-10
5.92729e-09 -0.00162875 7.02518e-11
4.94856e-09 -0.00131644 1.52352e-11
3.51554e-09 -0.00104346 -2.86826e-11
9.8762e-10 -0.000882857 -1.22474e-09
-2.21766e-07 -0.000891347 -1.50997e-08
-8.90883e-08 -0.000663983 9.70256e-09
-4.12665e-08 -0.000415079 1.7181e-08
-2.21198e-08 -0.000241163 1.34118e-08
-1.5318e-08 -0.000110521 6.91856e-09
0 0 0
-0.000114088 0 0
-0.000134198 -8.08247e-05 -0.000121155
-0.000177317 -0.000172153 -0.000268496
-0.000251631 -0.000280168 -0.000475662
-0.000456318 -0.000385497 -0.000793037
2.07025e-05 -0.000355128 -0.00107896
-0.000164547 -0.000440647 -0.000458935
-0.000280535 -0.000646538 -0.000548602
-0.000320898 -0.000866209 -0.00074892
-0.000328226 -0.00109312 -0.000952139
-0.000316499 -0.00131901 -0.00115199
-0.000288905 -0.00153565 -0.00134359
-0.000257134 -0.0017334 -0.00151889
-0.000233026 -0.00182109 -0.00159642
-0.000193581 -0.00190019 -0.00166602
-0.000136977 -0.00203034 -0.00177927
-8.04076e-05 -0.0021213 -0.00185708
-3.90246e-05 -0.00217414 -0.00190123
1.96342e-06 -0.00218685 -0.00191144
4.26653e-05 -0.00218525 -0.00190862
8.34884e-05 -0.00217103 -0.00189573
0.000138649 -0.00211547 -0.00184677
0.000193375 -0.00202257 -0.00176552
0.000231274 -0.00189153 -0.00165067
0.000254372 -0.00181241 -0.00158103
0.00028472 -0.00172498 -0.00150395
0.000310839 -0.00152852 -0.00133085
0.00032159 -0.0013139 -0.0011426
0.000313811 -0.00109042 -0.000946666
0.000273696 -0.000865954 -0.000747381
0.000159484 -0.000648207 -0.000550381
-2.16892e-05 -0.000441922 -0.00046181
0.000453448 -0.000350592 -0.00107703
0.000249622 -0.000377654 -0.000793712
0.000175693 -0.000272093 -0.000476057
0.000132826 -0.000166087 -0.000268554
0.000112842 -7.76322e-05 -0.00012112
0 0 0
-0.000154525 0 0
-0.000180015 -2.93019e-05 -0.000164404
-0.000231751 -5.8959e-05 -0.0003631
-0.000305205 -8.51198e-05 -0.000640667
-0.000427565 -9.20504e-05 -0.00107209
-7.17584e-05 -4.94674e-05 -0.00151126
-0.000273397 -0.000368733 -0.00199163
-0.000395834 -0.000847926 -0.00328495
-0.000439613 -0.00119752 -0.0045614
-0.000446225 -0.00151679 -0.00582114
-0.000429602 -0.00181544 -0.00705684
-0.000392178 -0.00205199 -0.00824006
-0.000348846 -0.00204684 -0.00932185
-0.000315878 -0.00202438 -0.00980037
-0.000261975 -0.00225143 -0.0102302
-0.000185165 -0.00269587 -0.0109309
-0.000108917 -0.00281516 -0.0114153
-5.33724e-05 -0.00260834 -0.0116941
1.58341e-06 -0.0025863 -0.0117609
5.61759e-05 -0.00258454 -0.0117517
0.000111009 -0.00260487 -0.0116763
0.000185464 -0.00280825 -0.0113818
0.000259867 -0.00268657 -0.0108863
0.000311769 -0.00224141 -0.0101804
0.000343418 -0.00201453 -0.00975058
0.00038488 -0.0020368 -0.00927363
0.000420303 -0.00204245 -0.00819937
0.000435467 -0.00180761 -0.00702764
0.000427884 -0.00151078 -0.00580547
0.000383648 -0.00119259 -0.00455944
0.000262012 -0.00084225 -0.00329494
6.57894e-05 -0.000359719 -0.00200808
0.000425694 -3.98922e-05 -0.00151907
0.000302879 -8.3556e-05 -0.00107571
0.000229648 -7.76977e-05 -0.000641683
0.000178175 -5.3528e-05 -0.000363299
0.000152835 -2.64526e-05 -0.000164394
0 0 0
-0.000169169 0 0
-0.000194954 1.30143e-05 -0.000177726
-0.000245191 3.1194e-05 -0.000389106
-0.000309449 6.02818e-05 -0.000673605
-0.000386296 0.000102575 -0.00108114
-0.000392802 0.000126073 -0.00140457
-0.000514822 0.000110261 -0.00181298
-0.000572417 0.000118346 -0.00280279
-0.000600995 0.000147062 -0.00383535
-0.000597237 0.000185689 -0.00487869
-0.000549472 0.00022579 -0.00591404
-0.000391063 0.000257102 -0.00691921
-0.000327712 0.000226691 -0.00788038
-0.000544163 0.000204309 -0.00830859
-0.00048528 0.000254523 -0.00864287
-0.000245673 0.000354304 -0.00916679
-6.15505e-06 0.000373889 -0.00956444
-3.18177e-05 0.000310947 -0.00984678
2.13939e-06 0.000306365 -0.00990922
3.56871e-05 0.000306118 -0.00990118
9.3178e-06 0.000310444 -0.00983112
0.000246526 0.000372755 -0.00953527
0.000482877 0.000352979 -0.00912768
0.000539223 0.000253729 -0.00859861
0.000321811 0.000203872 -0.00826399
0.00038282 0.000226225 -0.00783733
0.000538574 0.000256797 -0.00688308
0.000584738 0.000226343 -0.00588783
0.000587745 0.000187557 -0.00486385
0.000559354 0.000150686 -0.00383172
0.000503367 0.00012413 -0.00280831
0.000385235 0.00011814 -0.00182291
0.000382053 0.000134243 -0.00141241
0.000306457 0.000110449 -0.00108611
0.000242735 6.70103e-05 -0.000675412
0.00019285 3.6069e-05 -0.0003897
0.000167246 1.55672e-05 -0.00017788
0 0 0
-0.000156021 0 0
-0.000176842 3.81291e-05 -0.000159827
-0.000216574 8.31648e-05 -0.000344821
-0.000268236 0.000141595 -0.00058095
-0.00034096 0.000216859 -0.000892992
-0.000426449 0.000264296 -0.00111262
-0.000509057 0.000319668 -0.00139947
-0.000546136 0.000458671 -0.00207442
-0.000564813 0.000609837 -0.00279299
-0.000559518 0.000767054 -0.00353248
-0.000520405 0.000922012 -0.00427457
-0.000423502 0.00106167 -0.00499979
-0.000374281 0.00115727 -0.00568855
-0.000445374 0.00119879 -0.0059915
-0.000386872 0.00127135 -0.00622997
-0.000227075 0.00140421 -0.00659658
-6.96918e-05 0.00146854 -0.00687372
-4.12827e-05 0.00146504 -0.00706926
1.88214e-06 0.00146686 -0.00711441
4.46174e-05 0.00146574 -0.0071084
7.21932e-05 0.00146284 -0.00705757
0.000227688 0.0014644 -0.00685199
0.000384924 0.00139878 -0.00656724
0.000441044 0.00126554 -0.00619623
0.000368196 0.00119312 -0.00595729
0.000415256 0.00115187 -0.0056555
0.000510137 0.00105738 -0.00497197
0.000548011 0.000919596 -0.00425397
0.000552857 0.000766979 -0.00351997
0.000534567 0.000612336 -0.00278827
0.000498809 0.000463682 -0.00207606
0.000418736 0.000326672 -0.00140504
0.000335917 0.000271708 -0.00111856
0.000264855 0.000224139 -0.000897885
0.000213967 0.000147805 -0.00058349
0.000174684 8.7662e-05 -0.000346022
0.000154075 4.04854e-05 -0.000160293
0 0 0
-0.000117585 0 0
-0.000131655 5.43583e-05 -0.00011895
-0.00015829 0.000115907 -0.000254033
-0.000193527 0.000191098 -0.000420674
-0.000246979 0.000284146 -0.000631517
-0.0003168 0.000343746 -0.000772819
-0.000371394 0.000420205 -0.000957322
-0.000396484 0.000600708 -0.00138783
-0.000409177 0.000793588 -0.00184882
-0.000406122 0.00099266 -0.00232691
-0.000382211 0.00118986 -0.00280897
-0.000329179 0.00137405 -0.0032806
-0.000292351 0.00152844 -0.00372595
-0.000301206 0.00159706 -0.00392059
-0.000254726 0.00167276 -0.00407445
-0.000163122 0.00180272 -0.00430949
-7.32157e-05 0.00188205 -0.00448688
-3.73852e-05 0.00191161 -0.00461165
1.26592e-06 0.00191927 -0.00464095
3.95858e-05 0.0019178 -0.00463697
7.47684e-05 0.00190876 -0.00460392
0.000163408 0.00187674 -0.00447254
0.000253318 0.00179565 -0.00429003
0.000298042 0.00166484 -0.00405185
0.000287638 0.00158915 -0.00389757
0.000322875 0.00152091 -0.00370366
0.000374583 0.00136805 -0.00326175
0.000397691 0.0011861 -0.00279479
0.000400499 0.00099158 -0.00231792
0.000388127 0.000795297 -0.00184481
0.000363911 0.00060499 -0.00138798
0.000310901 0.000426476 -0.000960425
0.000242904 0.000350509 -0.000776587
0.000190742 0.000290871 -0.00063496
0.00015616 0.000196877 -0.000422766
0.00012991 0.000120111 -0.000255153
0.00011602 5.65659e-05 -0.000119425
0 0 0
-6.27757e-05 0 0
-6.97791e-05 6.22435e-05 -6.31178e-05
-8.30027e-05 0.000131598 -0.000134025
-0.000100686 0.000214376 -0.000219904
-0.000128223 0.000315094 -0.000326271
-0.000164477 0.000379323 -0.000396059
-0.000191685 0.000461743 -0.00048675
-0.00020457 0.000653968 -0.000697687
-0.000211159 0.000859247 -0.000923885
-0.000209982 0.00107121 -0.00115913
-0.000198996 0.001282 -0.00139671
-0.000175609 0.00148174 -0.00162911
-0.000155779 0.00165794 -0.00184797
-0.000150327 0.00173605 -0.00194335
-0.000125081 0.00181138 -0.00201873
-8.3797e-05 0.00193658 -0.00213362
-4.33251e-05 0.0020202 -0.00222047
-2.1494e-05 0.00206303 -0.00228168
6.16194e-07 0.00207341 -0.00229614
2.25507e-05 0.00207183 -0.00229417
4.40389e-05 0.00205996 -0.00227785
8.38839e-05 0.00201451 -0.00221336
0.000124333 0.00192895 -0.00212395
0.000148663 0.0018027 -0.00200743
0.000153247 0.00172734 -0.0019318
0.000172246 0.00164963 -0.00183679
0.000194982 0.0014751 -0.00161962
0.000205578 0.00127773 -0.0013895
0.000206645 0.00106969 -0.00115445
0.000200227 0.000860563 -0.000921644
0.000187772 0.000657855 -0.000697516
0.000161333 0.00046762 -0.000488144
0.000125997 0.000385726 -0.000397867
9.91376e-05 0.000321502 -0.000328002
8.18156e-05 0.000219912 -0.000221037
6.88084e-05 0.00013564 -0.000134669
6.19066e-05 6.43701e-05 -6.34018e-05
0 0 0
0 0 0
0 0 0
0 0 0
0 0 0
0 0 0
0 0 0
0 0 0
0 0 0
0 0 0
0 0 0
0 0 0
0 0 0
0 0 0
0 0 0
0 0 0
0 0 0
0 0 0
0 0 0
0 0 0
0 0 0
0 0 0
0 0 0
0 0 0
0 0 0
0 0 0
0 0 0
0 0 0
0 0 0
0 0 0
0 0 0
0 0 0
0 0 0
0 0 0
0 0 0
0 0 0
0 0 0
0 0 0
0 0 0
0 0 0
0 0.000230632 0
0 0.000489789 0
0 0.000803508 0
0 0.00119143 0
0 0.00144418 0
0 0.00177127 0
0 0.00253266 0
0 0.00334858 0
0 0.00419559 0
0 0.00504758 0
0 0.00587428 0
0 0.00664065 0
0 0.00697599 0
0 0.00725498 0
0 0.00769099 0
0 0.00800938 0
0 0.00821734 0
0 0.00826676 0
0 0.00825994 0
0 0.0082041 0
0 0.00798492 0
0 0.00765808 0
0 0.00721726 0
0 0.00693799 0
0 0.00660449 0
0 0.00584557 0
0 0.00502897 0
0 0.00418853 0
0 0.00335325 0
0 0.00254795 0
0 0.00179486 0
0 0.00147 0
0 0.0012172 0
0 0.000825617 0
0 0.000505872 0
0 0.00023908 0
0 0 0
0.000233504 0 0
0.000261627 0.000202971 6.24075e-05
0.000315451 0.000436039 0.0001339
0.000388709 0.000728271 0.000222892
0.000505554 0.00110341 0.000335763
0.000653746 0.00135624 0.000409932
0.000760318 0.00168586 0.000505157
0.000814198 0.00245899 0.000727762
0.000844922 0.00328571 0.00097275
0.000849819 0.00414028 0.0012358
0.000824753 0.00499715 0.00151152
0.000764926 0.00582658 0.00179264
0.000669829 0.00659154 0.00206999
0.000557571 0.0069278 0.00218635
0.00043634 0.00721541 0.00225791
0.000319836 0.00767023 0.00234239
0.000210575 0.00799419 0.00240975
0.000102326 0.00819513 0.00247029
-2.50459e-06 0.00824283 0.00248342
-0.000106562 0.00823603 0.00248035
-0.000213298 0.00818194 0.00246433
-0.000320034 0.00796978 0.00239874
-0.000433177 0.00763755 0.00232726
-0.000550392 0.00717837 0.00223991
-0.000658532 0.00689067 0.00216789
-0.000750046 0.00655623 0.00205233
-0.000807372 0.00579862 0.00177822
-0.000830994 0.00497932 0.00150094
-0.000825761 0.00413417 0.00122917
-0.000795788 0.00329165 0.000969753
-0.000743638 0.00247595 0.00072772
-0.000640347 0.00171143 0.000507282
-0.000496264 0.00138394 0.000412617
-0.000382321 0.00113085 0.000338292
-0.000310561 0.000751585 0.0002245
-0.000257665 0.000452896 0.000134796
-0.000229983 0.000211797 6.27986e-05
0 0 0
0.000439042 0 0
0.000496803 0.000146191 0.000117443
0.000608944 0.000324028 0.000253806
0.000764025 0.000568804 0.000427302
0.00101054 0.000917153 0.000652624
0.00131179 0.00117623 0.000803775
0.00153152 0.00150804 0.000998581
0.00163833 0.002307 0.0014565
0.00169653 0.00315336 0.00196155
0.00170368 0.00401582 0.0025053
0.00165141 0.00487207 0.00307866
0.00152765 0.00569538 0.00366834
0.00134076 0.00644676 0.00425408
0.00113167 0.00678005 0.0045013
0.000890825 0.00708094 0.00465593
0.00064465 0.00756912 0.00483768
0.000413594 0.00790265 0.00497752
0.000200693 0.00808978 0.00509996
-5.44305e-06 0.00813434 0.00512607
-0.000210058 0.00812781 0.00511954
-0.000419962 0.00807706 0.00508727
-0.000645772 0.007879 0.00495405
-0.000884957 0.0075378 0.00480552
-0.00111782 0.00704633 0.00461791
-0.00131907 0.00674575 0.00446248
-0.00149888 0.00641418 0.00421707
-0.00161748 0.00566962 0.00363835
-0.00166673 0.00485621 0.00305695
-0.00165878 0.00401176 0.00249204
-0.00160199 0.00316179 0.00195597
-0.00149872 0.0023273 0.00145703
-0.00128594 0.00153774 0.0010033
-0.000993134 0.00120778 0.000809396
-0.000752326 0.000947827 0.000657693
-0.000600068 0.000594389 0.000430295
-0.000489637 0.000342326 0.000255377
-0.000432684 0.000155718 0.000118101
0 0 0
0.000587262 0 0
0.000676098 5.89024e-05 0.00015745
0.000854115 0.000146123 0.000344607
0.00111138 0.000304005 0.00059235
0.00152662 0.000602965 0.000929403
0.00197267 0.000906351 0.00116583
0.00232692 0.00122011 0.00146835
0.00248045 0.00207794 0.00218921
0.00255443 0.00295293 0.00298525
0.00255534 0.0038102 0.00384377
0.00247042 0.00464033 0.00475612
0.00227534 0.00542569 0.00570664
0.00200435 0.00612851 0.00666047
0.001731 0.00644317 0.00706803
0.00137743 0.00675161 0.00733461
0.000977907 0.00727536 0.00765099
0.000601763 0.00761949 0.00787646
0.000291827 0.00778989 0.00805891
-9.03686e-06 0.00783192 0.00809663
-0.000307716 0.00782633 0.00808586
-0.000613309 0.00777896 0.00803795
-0.00098113 0.0075988 0.00783757
-0.00136953 0.00724849 0.00759797