<?xml version="1.0"?>
<VTKFile type="RectilinearGrid" version="0.1" byte_order="LittleEndian">
<RectilinearGrid WholeExtent="0 37 0 14 0 34">
<Piece Extent="0 37 0 14 0 34">
<PointData>
<DataArray type="Float32" Name="MVP" NumberOfComponents="3" format="ascii">
0 0 0
0 0 0
0 0 0
0 0 0
0 0 0
0 0 0
0 0 0
0 0 0
0 0 0
0 0 0
0 0 0
0 0 0
0 0 0
0 0 0
0 0 0
0 0 0
0 0 0
0 0 0
0 0 0
0 0 0
0 0 0
0 0 0
0 0 0
0 0 0
0 0 0
0 0 0
0 0 0
0 0 0
0 0 0
0 0 0
0 0 0
0 0 0
0 0 0
0 0 0
0 0 0
0 0 0
0 0 0
0 0 0
0 0 0
0 0 3.39257e-05
0 0 7.1554e-05
0 0 0.000116135
0 0 0.00016992
0 0 0.000204116
0 0 0.000248031
0 0 0.000349905
0 0 0.000457961
0 0 0.000569099
0 0 0.000679401
0 0 0.0007837
0 0 0.000875228
0 0 0.000915755
0 0 0.000955227
0 0 0.00102071
0 0 0.00106354
0 0 0.0010842
0 0 0.00108882
0 0 0.00108653
0 0 0.00107974
0 0 0.00105523
0 0 0.00100944
0 0 0.000942163
0 0 0.000902418
0 0 0.00086219
0 0 0.000772338
0 0 0.000670482
0 0 0.000562983
0 0 0.000454619
0 0 0.000348992
0 0 0.000249029
0 0 0.000205674
0 0 0.000171507
0 0 0.000117215
0 0 7.21721e-05
0 0 3.41969e-05
0 0 0
0 0 0
0 0 6.35745e-05
0 0 0.00013456
0 0 0.000219468
0 0 0.000322527
0 0 0.000388173
0 0 0.000472701
0 0 0.000669773
0 0 0.000878581
0 0 0.00109323
0 0 0.00130586
0 0 0.00150543
0 0 0.00167591
0 0 0.0017515
0 0 0.00183065
0 0 0.00196433
0 0 0.00204757
0 0 0.0020814
0 0 0.00208915
0 0 0.00208476
0 0 0.00207285
0 0 0.00203161
0 0 0.00194276
0 0 0.00180585
0 0 0.00172627
0 0 0.00165124
0 0 0.00148392
0 0 0.00128908
0 0 0.00108193
0 0 0.000872678
0 0 0.000668534
0 0 0.000474988
0 0 0.00039141
0 0 0.000325667
0 0 0.000221446
0 0 0.000135622
0 0 6.40188e-05
0 0 0
0 0 0
0 0 8.43927e-05
0 0 0.000179646
0 0 0.000295327
0 0 0.000436763
0 0 0.000526181
0 0 0.000639583
0 0 0.00090836
0 0 0.00119372
0 0 0.00148755
0 0 0.00177808
0 0 0.00204731
0 0 0.00226302
0 0 0.00235813
0 0 0.00247516
0 0 0.00267873
0 0 0.00279395
0 0 0.00282235
0 0 0.00283009
0 0 0.0028242
0 0 0.00281086
0 0 0.00277237
0 0 0.00264971
0 0 0.0024423
0 0 0.00232493
0 0 0.00223051
0 0 0.00201888
0 0 0.00175617
0 0 0.00147329
0 0 0.00118703
0 0 0.000908089
0 0 0.00064375
0 0 0.000531236
0 0 0.000441209
0 0 0.000297728
0 0 0.000180763
0 0 8.48084e-05
0 0 0
0 0 0
0 0 9.15114e-05
0 0 0.000196187
0 0 0.000325683
0 0 0.000484018
0 0 0.000579422
0 0 0.000681983
0 0 0.000948725
0 0 0.00124047
0 0 0.0015455
0 0 0.00184824
0 0 0.0021253
0 0 0.00231433
0 0 0.00239247
0 0 0.00253467
0 0 0.00278937
0 0 0.00291149
0 0 0.0029013
0 0 0.00290586
0 0 0.00289998
0 0 0.0028898
0 0 0.00288953
0 0 0.00276008
0 0 0.00250251
0 0 0.00236046
0 0 0.00228276
0 0 0.00209741
0 0 0.00182725
0 0 0.00153284
0 0 0.00123624
0 0 0.000951616
0 0 0.000688979
0 0 0.000586161
0 0 0.000488825
0 0 0.000327554
0 0 0.000196752
0 0 9.16191e-05
0 0 0
0 0 0
0 0 8.35026e-05
0 0 0.000179775
0 0 0.000300662
0 0 0.000450954
0 0 0.000542752
0 0 0.000556376
0 0 0.000684221
0 0 0.000871386
0 0 0.00108001
0 0 0.00129233
0 0 0.00149711
0 0 0.00168415
0 0 0.00176724
0 0 0.00184235
0 0 0.00196638
0 0 0.00205295
0 0 0.00210236
0 0 0.00211359
0 0 0.0021095
0 0 0.00209438
0 0 0.00203801
0 0 0.0019465
0 0 0.0018202
0 0 0.00174504
0 0 0.00166261
0 0 0.00147881
0 0 0.00127918
0 0 0.00107314
0 0 0.000871181
0 0 0.000690198
0 0 0.000566228
0 0 0.000550659
0 0 0.000455354
0 0 0.000302045
0 0 0.000180038
0 0 8.3474e-05
0 0 0
0 0 0
0 0 6.15453e-05
0 0 0.000133023
0 0 0.00022458
0 0 0.000346139
0 0 0.000444674
0 0 0.000429137
0 0 0.00049841
0 0 0.000624126
0 0 0.000769519
0 0 0.000918897
0 0 0.00106323
0 0 0.00119506
0 0 0.00125368
0 0 0.00130674
0 0 0.00139463
0 0 0.00145622
0 0 0.0014915
0 0 0.00149954
0 0 0.00149667
0 0 0.00148591
0 0 0.00144575
0 0 0.0013807
0 0 0.00129122
0 0 0.00123812
0 0 0.00117996
0 0 0.0010504
0 0 0.00090968
0 0 0.00076471
0 0 0.000623919
0 0 0.000502181
0 0 0.000434463
0 0 0.000448119
0 0 0.000348808
0 0 0.000225542
0 0 0.000133221
0 0 6.15292e-05
0 0 0
0 0 0
0 0 -4.07548e-08
0 0 -8.90335e-08
0 0 -1.58426e-07
0 0 -2.80242e-07
0 0 -4.13085e-07
0 0 -4.01568e-07
0 0 -3.65288e-07
0 0 -3.18365e-07
0 0 -2.6272e-07
0 0 -2.00808e-07
0 0 -1.35316e-07
0 0 -6.88023e-08
0 0 -3.59627e-08
0 0 -3.68857e-09
0 0 5.87084e-08
0 0 1.17047e-07
0 0 1.7057e-07
0 0 1.95382e-07
0 0 2.41033e-07
0 0 2.61862e-07
0 0 2.99588e-07
0 0 3.32513e-07
0 0 3.60986e-07
0 0 3.73606e-07
0 0 3.85113e-07
0 0 4.05147e-07
0 0 4.21903e-07
0 0 4.35771e-07
0 0 4.47024e-07
0 0 4.5579e-07
0 0 4.6195e-07
0 0 4.63419e-07
0 0 2.85134e-07
0 0 1.39221e-07
0 0 6.89756e-08
0 0 2.90807e-08
0 0 0
0 0 0
0 0 -6.16252e-05
0 0 -0.000133198
0 0 -0.000224893
0 0 -0.000346702
0 0 -0.000445507
0 0 -0.000429949
0 0 -0.000499151
0 0 -0.000624771
0 0 -0.00077005
0 0 -0.000919301
0 0 -0.0010635
0 0 -0.00119519
0 0 -0.00125375
0 0 -0.00130674
0 0 -0.00139451
0 0 -0.00145598
0 0 -0.00149115
0 0 -0.00149914
0 0 -0.00149618
0 0 -0.00148538
0 0 -0.00144515
0 0 -0.00138003
0 0 -0.0012905
0 0 -0.00123737
0 0 -0.00117918
0 0 -0.00104959
0 0 -0.000908834
0 0 -0.000763836
0 0 -0.000623023
0 0 -0.000501268
0 0 -0.000433536
0 0 -0.000447188
0 0 -0.00034823
0 0 -0.000225263
0 0 -0.000133084
0 0 -6.14716e-05
0 0 0
0 0 0
0 0 -8.35787e-05
0 0 -0.000179941
0 0 -0.000300959
0 0 -0.000451494
0 0 -0.000543591
0 0 -0.000557197
0 0 -0.000684971
0 0 -0.000872038
0 0 -0.00108054
0 0 -0.00129274
0 0 -0.00149738
0 0 -0.00168429
0 0 -0.00176731
0 0 -0.00184235
0 0 -0.00196626
0 0 -0.0020527
0 0 -0.002102
0 0 -0.00211319
0 0 -0.00210901
0 0 -0.00209385
0 0 -0.0020374
0 0 -0.00194582
0 0 -0.00181947
0 0 -0.00174429
0 0 -0.00166183
0 0 -0.001478
0 0 -0.00127833
0 0 -0.00107226
0 0 -0.000870284
0 0 -0.000689283
0 0 -0.000565299
0 0 -0.000549722
0 0 -0.000454801
0 0 -0.000301781
0 0 -0.000179908
0 0 -8.34191e-05
0 0 0
0 0 0
0 0 -9.15796e-05
0 0 -0.000196334
0 0 -0.000325935
0 0 -0.000484433
0 0 -0.000579954
0 0 -0.000682523
0 0 -0.000949212
0 0 -0.00124089
0 0 -0.00154584
0 0 -0.0018485
0 0 -0.00212547
0 0 -0.00231441
0 0 -0.00239251
0 0 -0.00253467
0 0 -0.00278928
0 0 -0.00291132
0 0 -0.00290106
0 0 -0.00290559
0 0 -0.00289966
0 0 -0.00288945
0 0 -0.00288914
0 0 -0.00275966
0 0 -0.00250203
0 0 -0.00235996
0 0 -0.00228226
0 0 -0.00209691
0 0 -0.00182672
0 0 -0.00153231
0 0 -0.0012357
0 0 -0.000951055
0 0 -0.000688404
0 0 -0.000585608
0 0 -0.000488421
0 0 -0.000327339
0 0 -0.00019664
0 0 -9.15709e-05
0 0 0
0 0 0
0 0 -8.44423e-05
0 0 -0.000179749
0 0 -0.000295494
0 0 -0.000437009
0 0 -0.000526465
0 0 -0.000639873
0 0 -0.000908624
0 0 -0.00119395
0 0 -0.00148774
0 0 -0.00177821
0 0 -0.00204739
0 0 -0.00226306
0 0 -0.00235815
0 0 -0.00247515
0 0 -0.00267867
0 0 -0.00279386
0 0 -0.00282222
0 0 -0.00282994
0 0 -0.00282402
0 0 -0.00281067
0 0 -0.00277217
0 0 -0.00264949
0 0 -0.00244205
0 0 -0.00232467
0 0 -0.00223025
0 0 -0.00201863
0 0 -0.00175591
0 0 -0.00147302
0 0 -0.00118676
0 0 -0.000907813
0 0 -0.000643472
0 0 -0.000530973
0 0 -0.000440993
0 0 -0.000297598
0 0 -0.000180689
0 0 -8.47753e-05
0 0 0
0 0 0
0 0 -6.36065e-05
0 0 -0.000134626
0 0 -0.000219569
0 0 -0.000322667
0 0 -0.000388327
0 0 -0.000472858
0 0 -0.000669917
0 0 -0.000878705
0 0 -0.00109333
0 0 -0.00130593
0 0 -0.00150547
0 0 -0.00167593
0 0 -0.00175151
0 0 -0.00183064
0 0 -0.00196429
0 0 -0.00204751
0 0 -0.00208132
0 0 -0.00208907
0 0 -0.00208466
0 0 -0.00207275
0 0 -0.0020315
0 0 -0.00194264
0 0 -0.00180572
0 0 -0.00172613
0 0 -0.00165111
0 0 -0.00148379
0 0 -0.00128895
0 0 -0.00108179
0 0 -0.000872541
0 0 -0.000668396
0 0 -0.000474851
0 0 -0.00039128
0 0 -0.000325555
0 0 -0.000221372
0 0 -0.000135578
0 0 -6.39984e-05
0 0 0
0 0 0
0 0 -3.39414e-05
0 0 -7.15856e-05
0 0 -0.000116183
0 0 -0.000169984
0 0 -0.000204185
0 0 -0.000248101
0 0 -0.00034997
0 0 -0.000458017
0 0 -0.000569143
0 0 -0.000679433
0 0 -0.000783719
0 0 -0.000875234
0 0 -0.000915755
0 0 -0.000955222
0 0 -0.0010207
0 0 -0.00106352
0 0 -0.00108417
0 0 -0.00108878
0 0 -0.00108649
0 0 -0.00107969
0 0 -0.00105518
0 0 -0.00100939
0 0 -0.000942106
0 0 -0.000902359
0 0 -0.00086213
0 0 -0.000772279
0 0 -0.000670424
0 0 -0.000562925
0 0 -0.00045456
0 0 -0.000348933
0 0 -0.000248971
0 0 -0.000205619
0 0 -0.000171458
0 0 -0.000117181
0 0 -7.21517e-05
0 0 -3.41872e-05
0 0 0
0 0 0
0 0 0
0 0 0
0 0 0
0 0 0
0 0 0
0 0 0
0 0 0
0 0 0
0 0 0
0 0 0
0 0 0
0 0 0
0 0 0
0 0 0
0 0 0
0 0 0
0 0 0
0 0 0
0 0 0
0 0 0
0 0 0
0 0 0
0 0 0
0 0 0
0 0 0
0 0 0
0 0 0
0 0 0
0 0 0
0 0 0
0 0 0
0 0 0
0 0 0
0 0 0
0 0 0
0 0 0
0 0 0
0 0 0
0 3.44304e-05 0
0 7.29041e-05 0
0 0.000118973 0
0 0.000175092 0
0 0.000210785 0
0 0.000256401 0
0 0.000362204 0
0 0.000474589 0
0 0.000590192 0
0 0.000704885 0
0 0.000813322 0
0 0.000908581 0
0 0.00095077 0
0 0.000991755 0
0 0.00105978 0
0 0.00110443 0
0 0.00112617 0
0 0.00113106 0
0 0.00112874 0
0 0.00112167 0
0 0.00109608 0
0 0.00104858 0
0 0.000979031 0
0 0.000937975 0
0 0.000896334 0
0 0.000803404 0
0 0.000698282 0
0 0.000587478 0
0 0.000475899 0
0 0.000367228 0
0 0.000264382 0
0 0.000219602 0
0 0.000184003 0
0 0.000126777 0
0 7.86535e-05 0
0 3.74714e-05 0
0 0 0
3.51942e-05 0 0
3.90643e-05 2.9986e-05 3.46496e-05
4.63396e-05 6.40338e-05 7.35645e-05
5.59778e-05 0.000105735 0.000120672
7.09193e-05 0.000157331 0.000178958
9.05588e-05 0.000190327 0.00021713
0.000104844 0.000232718 0.0002664
0.000111153 0.000332038 0.000379974
0.00011422 0.000437263 0.000501142
0.000113284 0.000545327 0.000626827
0.000107132 0.00065209 0.000753698
9.41814e-05 0.000751533 0.000877903
8.35563e-05 0.000834243 0.000995025
8.13412e-05 0.000870975 0.00104599
6.77184e-05 0.000912168 0.001086
4.48331e-05 0.000982908 0.00114645
2.24327e-05 0.00102515 0.00119171
1.08469e-05 0.0010394 0.00122312
-8.61715e-07 0.00104279 0.00123005
-1.23196e-05 0.00104066 0.0012272
-2.34167e-05 0.00103526 0.00121758
-4.49096e-05 0.00101745 0.00118143
-6.65881e-05 0.000972652 0.00113247
-7.89181e-05 0.000900705 0.00106966
-7.99489e-05 0.000859537 0.00102928
-8.94185e-05 0.000823296 0.000978805
-0.000101451 0.000742681 0.000864041
-0.000107046 0.000646355 0.000742984
-0.000107795 0.00054332 0.000619584
-0.000104904 0.000439184 0.000497251
-9.91146e-05 0.000337652 0.000378973
-8.58513e-05 0.000241299 0.000267671
-6.75004e-05 0.000199715 0.000219072
-5.35374e-05 0.000166761 0.000180887
-4.44393e-05 0.000113946 0.00012192
-3.74991e-05 7.00582e-05 7.42582e-05
-3.37895e-05 3.31652e-05 3.49489e-05
0 0 0
6.58151e-05 0 0
7.3548e-05 2.08336e-05 6.53637e-05
8.81053e-05 4.54777e-05 0.0001396
0.000107151 7.73688e-05 0.000231215
0.000136104 0.000117998 0.000347177
0.000174294 0.00014343 0.000424897
0.000202797 0.000174281 0.000525582
0.000214732 0.000250559 0.000757427
0.000220495 0.000331861 0.00100417
0.000218248 0.000415736 0.0012594
0.000204894 0.00049815 0.00151672
0.000175458 0.000572025 0.00176879
0.00015586 0.000621052 0.0020073
0.000162772 0.000642259 0.00211143
0.000137846 0.000681673 0.00219311
8.69748e-05 0.000754127 0.00231681
3.71285e-05 0.00078795 0.00240936
1.84741e-05 0.000783596 0.00247357
-1.74456e-06 0.000783842 0.00248763
-2.14968e-05 0.000782302 0.00248187
-3.92416e-05 0.000780583 0.00246237
-8.72613e-05 0.000782236 0.0023886
-0.000135688 0.000746655 0.00228864
-0.000158154 0.000673774 0.00216038
-0.000149181 0.000634597 0.00207806
-0.000166588 0.000613703 0.00197495
-0.000194159 0.00056611 0.00174123
-0.000206375 0.000494735 0.00149559
-0.000208211 0.000415486 0.00124536
-0.000202756 0.000335129 0.000996956
-0.000191846 0.000257353 0.000755993
-0.000165421 0.000184053 0.000528469
-0.000129812 0.000153929 0.000428953
-0.000102741 0.000128403 0.00035101
-8.46859e-05 8.63382e-05 0.000233487
-7.07317e-05 5.20165e-05 0.000140774
-6.32864e-05 2.42718e-05 6.58441e-05
0 0 0
8.70534e-05 0 0
9.83452e-05 6.7026e-06 8.79713e-05
0.000119666 1.60414e-05 0.000189875
0.000146785 3.05003e-05 0.00032022
0.000185427 4.93606e-05 0.00049309
0.00023413 5.71946e-05 0.000615408
0.000276821 4.88382e-05 0.000773819
0.000293509 5.22314e-05 0.0011373
0.000301736 6.3726e-05 0.00152131
0.000298053 7.97426e-05 0.00191569
0.000276316 9.65334e-05 0.00231168
0.000222319 0.000108631 0.00269943
0.00019642 8.57841e-05 0.00306892
0.000239978 7.05207e-05 0.00323138
0.00020906 9.72495e-05 0.00335802
0.000120128 0.000150967 0.00355105
3.26954e-05 0.000159693 0.00369602
1.93257e-05 0.000122194 0.00379728
-2.49146e-06 0.000119275 0.00381908
-2.3724e-05 0.000119247 0.00381033
-3.59717e-05 0.000122107 0.00378028
-0.000120713 0.000159196 0.00366447
-0.000205975 0.00015059 0.00350847
-0.000233614 9.79481e-05 0.00330901
-0.000187897 7.18185e-05 0.00318162
-0.000210879 8.69587e-05 0.00302077
-0.000262038 0.00010975 0.00265857
-0.000282044 9.85612e-05 0.00228073
-0.000285011 8.32677e-05 0.00189576
-0.000277084 6.93749e-05 0.001512
-0.000261848 6.06937e-05 0.00113676
-0.000222409 6.03512e-05 0.000779102
-0.000177568 6.92886e-05 0.000621798
-0.000141402 6.10225e-05 0.000498484
-0.000115472 4.04669e-05 0.000322863
-9.48661e-05 2.32695e-05 0.000191025
-8.39177e-05 1.04907e-05 8.83787e-05
0 0 0
9.38819e-05 0 0
0.000107482 -1.67605e-05 9.80603e-05
0.000133258 -3.40405e-05 0.000214886
0.000163766 -5.11503e-05 0.000372883
0.000198248 -6.60289e-05 0.000601445
0.000213993 -7.15342e-05 0.000786018
0.000276348 -0.000245511 0.0010187
0.000300979 -0.00051686 0.00155057
0.000313718 -0.000720792 0.00210093
0.00031091 -0.000908803 0.00265711
0.0002847 -0.00108507 0.00321012
0.000196116 -0.00122532 0.00374839
0.000162907 -0.00122541 0.00426558
0.000290724 -0.00121379 0.00449611
0.000260515 -0.00134642 0.00467384
0.000127245 -0.00160515 0.00495031
-5.74462e-06 -0.0016744 0.00515936
1.30392e-05 -0.00155413 0.00530703
-2.47627e-06 -0.00154052 0.00533739
-1.74851e-05 -0.001537 0.00532562
2.10696e-06 -0.00154716 0.00528412
-0.000127722 -0.00166051 0.00511671
-0.000256452 -0.00158651 0.00489312
-0.000283337 -0.00132651 0.00460897
-0.000154859 -0.00119425 0.00443064
-0.000185047 -0.00120536 0.00420224
-0.000269959 -0.00120592 0.00369469
-0.000294008 -0.00106879 0.00317002
-0.000295685 -0.00089608 0.00263251
-0.000282847 -0.000710617 0.00209149
-0.000259731 -0.00050651 0.00155354
-0.00020226 -0.000230853 0.00102822
-0.000191633 -5.61311e-05 0.000794286
-0.000159021 -5.2747e-05 0.000606616
-0.000129329 -3.97967e-05 0.000374384
-0.000104115 -2.58051e-05 0.000215139
-9.08084e-05 -1.24549e-05 9.80135e-05
0 0 0
8.54697e-05 0 0
9.86141e-05 -4.4845e-05 9.07354e-05
0.000124059 -9.51364e-05 0.000200562
0.000154961 -0.000154019 0.000354816
0.000190445 -0.000210987 0.000598096
3.69587e-05 -0.000197212 0.000854695
0.000137624 -0.000248819 0.00114808
0.00019606 -0.000359034 0.00183694
0.000216835 -0.000476799 0.00251523
0.000219999 -0.00059852 0.00318789
0.000211949 -0.000719853 0.00384995
0.000193669 -0.000836429 0.00448534
0.00017235 -0.000942955 0.005067
0.000156077 -0.000990156 0.00532423
0.000129393 -0.00103267 0.00555502
9.1246e-05 -0.00110232 0.00592993
5.33938e-05 -0.00115042 0.00618605
2.59319e-05 -0.00117761 0.00632939
-1.14801e-06 -0.00118373 0.00636139
-2.78103e-05 -0.00118134 0.00634786
-5.44547e-05 -0.00117293 0.00630299
-9.02474e-05 -0.00114165 0.00613652
-0.000125633 -0.00109062 0.00586384
-0.000150028 -0.0010196 0.00548123
-0.000164796 -0.000977033 0.00525022
-0.000183972 -0.000930186 0.00499508
-0.000199918 -0.000825476 0.0044238
-0.000206161 -0.000711737 0.00380424
-0.000201586 -0.000593776 0.00316069
-0.000179737 -0.000475451 0.00250659
-0.00012145 -0.000360347 0.00184413
-2.76752e-05 -0.000249509 0.00116399
-0.000187875 -0.000189481 0.000862884
-0.0001514 -0.000198347 0.000601663
-0.000120764 -0.00014145 0.0003554
-9.57102e-05 -8.58176e-05 0.000200361
-8.2797e-05 -3.99657e-05 9.04992e-05
0 0 0
6.29625e-05 0 0
7.31702e-05 -6.27232e-05 6.67602e-05
9.3854e-05 -0.000135196 0.000147884
0.000124863 -0.00022735 0.00026173
0.0002013 -0.000348701 0.000435076
-2.66759e-05 -0.000446392 0.000585257
7.29254e-05 -0.000423137 0.000132829
0.000128465 -0.000485509 0.000150791
0.000147622 -0.000606335 0.000204745
0.000151311 -0.000747106 0.000259236
0.000146087 -0.000891947 0.000312913
0.000133455 -0.00103195 0.000364435
0.000118809 -0.00115983 0.000411589
0.000107668 -0.00121668 0.00043243
8.93908e-05 -0.00126815 0.000451116
6.30435e-05 -0.00135336 0.000481416
3.66801e-05 -0.00141304 0.000502022
1.74465e-05 -0.00144718 0.000513428
-1.54799e-06 -0.00145494 0.000515904
-2.02512e-05 -0.00145207 0.000514558
-3.89156e-05 -0.00144159 0.000510801
-6.38502e-05 -0.00140256 0.000497093
-8.82954e-05 -0.00133939 0.000474842
-0.000105013 -0.00125251 0.000443777
-0.000115132 -0.00120095 0.000425069
-0.000128333 -0.00114448 0.000404436
-0.000139429 -0.0010187 0.000358309
-0.000143559 -0.000882087 0.000308353
-0.00013921 -0.00074132 0.000256503
-0.000119991 -0.000604523 0.000203837
-6.60087e-05 -0.00048601 0.000151422
2.85932e-05 -0.000419552 0.000134118
-0.000197226 -0.000432228 0.000584028
-0.000122005 -0.000333643 0.000436001
-9.14353e-05 -0.000213565 0.000261968
-7.10743e-05 -0.000125135 0.000147719
-6.10394e-05 -5.74804e-05 6.65875e-05
0 0 0
-4.42127e-08 0 0
-5.17035e-08 -6.27217e-05 -3.32631e-08
-7.26935e-08 -0.000135193 -6.62101e-08
-1.24768e-07 -0.000227347 -9.63399e-08
-2.68048e-07 -0.000348705 -1.14064e-07
2.11813e-08 -0.0004464 -1.00198e-07
3.46779e-08 -0.000423146 -1.10634e-08
4.52816e-08 -0.000485519 -7.90079e-10
5.39037e-08 -0.000606343 -3.6265e-10
6.00955e-08 -0.000747112 -2.43957e-10
6.36526e-08 -0.00089195 -1.33267e-10
6.47097e-08 -0.00103195 -3.08701e-11
6.39384e-08 -0.00115983 5.58604e-11
6.28613e-08 -0.00121668 8.90322e-11
6.08031e-08 -0.00126814 1.21028e-10
5.68936e-08 -0.00135336 1.66854e-10
5.22373e-08 -0.00141303 1.92544e-10
4.84586e-08 -0.00144717 2.01964e-10
4.46023e-08 -0.00145493 2.02054e-10
4.072e-08 -0.00145207 1.94551e-10
3.68937e-08 -0.00144159 1.88731e-10
3.22156e-08 -0.00140256 1.74996e-10
2.78712e-08 -0.00133938 1.56312e-10
2.47139e-08 -0.00125251 1.33933e-10
2.25398e-08 -0.00120095 1.2079e-10
1.96266e-08 -0.00114448 1.12458e-10
1.64177e-08 -0.0010187 9.43684e-11
1.3586e-08 -0.000882085 7.71263e-11
1.10222e-08 -0.000741318 6.24543e-11
8.58099e-09 -0.000604521 5.08885e-11
6.02363e-09 -0.000486008 6.58578e-11
2.84704e-09 -0.000419549 6.14252e-10
-3.56628e-07 -0.000432224 2.03224e-09
-1.45957e-07 -0.000333635 3.78971e-08
-7.02834e-08 -0.000213565 4.34313e-08
-3.99296e-08 -0.000125136 3.17155e-08
-2.91138e-08 -5.74809e-05 1.60932e-08
0 0 0
-6.30492e-05 0 0
-7.32721e-05 -4.48374e-05 -6.68249e-05
-9.39993e-05 -9.51189e-05 -0.000148012
-0.00012512 -0.000153987 -0.000261916
-0.000201846 -0.000210941 -0.000435292
2.67135e-05 -0.000197225 -0.000585444
-7.28587e-05 -0.000248838 -0.000132863
-0.000128375 -0.000359053 -0.000150805
-0.000147513 -0.000476814 -0.000204756
-0.00015119 -0.000598531 -0.000259244
-0.000145959 -0.000719859 -0.000312917
-0.000133325 -0.000836431 -0.000364436
-0.000118681 -0.000942953 -0.000411587
-0.000107542 -0.000990153 -0.000432427
-8.92692e-05 -0.00103267 -0.000451112
-6.29301e-05 -0.00110232 -0.000481411
-3.65762e-05 -0.00115041 -0.000502016
-1.73502e-05 -0.0011776 -0.000513422
1.63643e-06 -0.00118373 -0.000515898
2.03318e-05 -0.00118133 -0.000514552
3.89886e-05 -0.00117292 -0.000510795
6.39139e-05 -0.00114164 -0.000497088
8.83507e-05 -0.00109062 -0.000474837
0.000105061 -0.00101959 -0.000443773
0.000115177 -0.000977026 -0.000425065
0.000128371 -0.000930181 -0.000404433
0.000139462 -0.000825471 -0.000358307
0.000143586 -0.000711734 -0.000308351
0.000139232 -0.000593773 -0.000256501
0.000120008 -0.000475448 -0.000203835
6.60217e-05 -0.000360344 -0.000151421
-2.85855e-05 -0.000249504 -0.000134116
0.000196521 -0.000189469 -0.000584026
0.000121706 -0.000198395 -0.00043593
9.12936e-05 -0.00014148 -0.000261884
7.09947e-05 -8.58316e-05 -0.000147657
6.09816e-05 -3.99712e-05 -6.6556e-05
0 0 0
-8.55524e-05 0 0
-9.87109e-05 -1.67448e-05 -9.0797e-05
-0.000124197 -3.40015e-05 -0.000200684
-0.000155211 -5.10603e-05 -0.000354992
-0.00019105 -6.57796e-05 -0.000598299
-3.69318e-05 -7.09212e-05 -0.000854867
-0.000137561 -0.00024495 -0.00114824
-0.000195972 -0.000516335 -0.00183707
-0.000216728 -0.000720331 -0.00251533
-0.000219879 -0.000908418 -0.00318796
-0.000211822 -0.00108477 -0.00384999
-0.00019354 -0.00122512 -0.00448534
-0.000172224 -0.0012253 -0.00506698
-0.000155953 -0.00121373 -0.0053242
-0.000129273 -0.0013464 -0.00555499
-9.11342e-05 -0.00160523 -0.00592988
-5.32914e-05 -0.00167456 -0.006186
-2.58372e-05 -0.00155436 -0.00632933
1.23502e-06 -0.00154078 -0.00636133
2.78896e-05 -0.00153732 -0.0063478
5.45264e-05 -0.00154752 -0.00630293
9.03101e-05 -0.00166096 -0.00613647
0.000125687 -0.00158701 -0.00586379
0.000150076 -0.00132701 -0.0054812
0.000164839 -0.00119475 -0.00525019
0.00018401 -0.00120591 -0.00499506
0.00019995 -0.00120653 -0.00442378
0.000206187 -0.00106944 -0.00380423
0.000201608 -0.000896757 -0.00316068
0.000179754 -0.000711314 -0.00250659
0.000121464 -0.000507219 -0.00184412
2.76903e-05 -0.00023156 -0.00116399
0.000187108 -5.68989e-05 -0.000862884
0.00015111 -5.30466e-05 -0.000601595
0.00012063 -3.98938e-05 -0.000355319
9.56349e-05 -2.5842e-05 -0.000200301
8.2742e-05 -1.24683e-05 -9.0469e-05
0 0 0
-9.39564e-05 0 0
-0.000107566 6.72125e-06 -9.81167e-05
-0.00013337 1.60845e-05 -0.000214997
-0.000163936 3.05852e-05 -0.000373046
-0.00019849 4.95298e-05 -0.00060164
-0.000214018 5.74419e-05 -0.000786211
-0.000276305 4.90885e-05 -0.00101889
-0.000300923 5.24553e-05 -0.00155074
-0.00031365 6.39205e-05 -0.00210107
-0.000310834 7.9903e-05 -0.00265722
-0.000284621 9.6656e-05 -0.00321018
-0.000196038 0.000108714 -0.00374842
-0.000162828 8.5828e-05 -0.00426557
-0.000290644 7.05446e-05 -0.00449609
-0.000260441 9.72526e-05 -0.00467381
-0.000127176 0.000150931 -0.00495025
5.81258e-06 0.000159621 -0.0051593
-1.29793e-05 0.000122087 -0.00530696
2.52944e-06 0.000119151 -0.00533731
1.75302e-05 0.000119095 -0.00532554
-2.07514e-06 0.000121941 -0.00528403
0.000127759 0.000159012 -0.00511662
0.000256501 0.000150386 -0.00489303
0.000283382 9.77182e-05 -0.00460889
0.000154867 7.15763e-05 -0.00443056
0.000185049 8.67132e-05 -0.00420216
0.000269972 0.000109499 -0.0036946
0.000294021 9.83007e-05 -0.00316994
0.000295696 8.2998e-05 -0.00263243
0.000282857 6.90974e-05 -0.00209141
0.000259746 6.04086e-05 -0.00155347
0.000202214 6.00532e-05 -0.00102815
0.000191334 6.89989e-05 -0.000794217
0.000158832 6.08339e-05 -0.000606534
0.000129225 4.03825e-05 -0.000374306
0.000104051 2.32315e-05 -0.000215084
9.07601e-05 1.04756e-05 -9.79858e-05
0 0 0
-8.71084e-05 0 0
-9.84046e-05 2.08515e-05 -8.80143e-05
-0.000119735 4.55164e-05 -0.00018996
-0.00014687 7.74352e-05 -0.000320344
-0.000185512 0.000118105 -0.000493245
-0.000234149 0.00014356 -0.00061557
-0.000276804 0.000174415 -0.00077398
-0.000293482 0.00025068 -0.00113745
-0.000301701 0.000331966 -0.00152143
-0.000298014 0.000415821 -0.00191578
-0.000276275 0.000498212 -0.00231174
-0.000222279 0.000572065 -0.00269946
-0.000196381 0.00062107 -0.00306892
-0.000239938 0.000642267 -0.00323136
-0.000209024 0.00068167 -0.003358
-0.000120095 0.000754102 -0.00355101
-3.26631e-05 0.000787907 -0.00369596
-1.92977e-05 0.000783535 -0.00379721
2.51555e-06 0.000783773 -0.003819
2.37434e-05 0.000782219 -0.00381025
3.59848e-05 0.000780494 -0.0037802
0.00012073 0.000782139 -0.00366438
0.000205998 0.000746549 -0.00350837
0.000233634 0.000673655 -0.00330892
0.000187898 0.000634472 -0.00318153
0.000210876 0.000613577 -0.00302068
0.000262041 0.000565985 -0.00265848
0.000282048 0.000494606 -0.00228064
0.000285015 0.000415354 -0.00189567
0.000277088 0.000334994 -0.00151191
0.000261851 0.000257216 -0.00113667
0.00022238 0.000183912 -0.000779018
0.000177471 0.000153795 -0.000621717
0.000141317 0.000128299 -0.000498406
0.000115414 8.6281e-05 -0.000322801
9.48256e-05 5.19867e-05 -0.000190983
8.38844e-05 2.4259e-05 -8.83577e-05
0 0 0
-6.58511e-05 0 0
-7.35854e-05 3.00028e-05 -6.53925e-05
-8.81456e-05 6.40685e-05 -0.000139657
-0.000107194 0.00010579 -0.000231298
-0.00013614 0.000157408 -0.000347281
-0.000174304 0.000190414 -0.000425007
-0.000202791 0.000232807 -0.000525692
-0.000214719 0.000332119 -0.000757529
-0.000220477 0.000437333 -0.00100425
-0.000218227 0.000545383 -0.00125947
-0.000204873 0.00065213 -0.00151676
-0.000175437 0.000751556 -0.00176881
-0.00015584 0.000834251 -0.0020073
-0.000162752 0.000870976 -0.00211142
-0.000137829 0.00091216 -0.00219309
-8.69589e-05 0.000982887 -0.00231678
-3.71132e-05 0.00102511 -0.00240932
-1.8461e-05 0.00103936 -0.00247352
1.75545e-06 0.00104274 -0.00248758
2.15053e-05 0.00104061 -0.00248182
3.92472e-05 0.00103521 -0.00246231
8.72689e-05 0.00101738 -0.00238854
0.000135699 0.000972584 -0.00228858
0.000158163 0.000900631 -0.00216032
0.00014918 0.00085946 -0.002078
0.000166585 0.000823218 -0.00197488
0.000194159 0.000742604 -0.00174116
0.000206376 0.000646278 -0.00149552
0.000208212 0.000543242 -0.0012453
0.000202756 0.000439105 -0.000996888
0.000191845 0.000337572 -0.000755927
0.000165407 0.00024122 -0.000528406
0.000129775 0.00019964 -0.000428893
0.000102703 0.000166697 -0.000350955
8.46561e-05 0.000113905 -0.000233445
7.07082e-05 7.00347e-05 -0.000140746
6.32659e-05 3.31545e-05 -6.58301e-05
0 0 0
-3.52119e-05 0 0
-3.90824e-05 3.44466e-05 -3.46639e-05
-4.63582e-05 7.29368e-05 -7.35928e-05
-5.59964e-05 0.000119022 -0.000120713
-7.09338e-05 0.000175158 -0.00017901
-9.05636e-05 0.000210857 -0.000217185
-0.000104842 0.000256474 -0.000266455
-0.000111148 0.00036227 -0.000380024
-0.000114213 0.000474646 -0.000501185
-0.000113276 0.000590237 -0.00062686
-0.000107123 0.000704916 -0.00075372
-9.41726e-05 0.000813339 -0.000877914
-8.35478e-05 0.000908584 -0.000995025
-8.1333e-05 0.000950768 -0.00104599
-6.7711e-05 0.000991746 -0.00108599
-4.48265e-05 0.00105976 -0.00114644
-2.24265e-05 0.00110441 -0.00119169
-1.08418e-05 0.00112614 -0.0012231
8.6596e-07 0.00113102 -0.00123002
1.23228e-05 0.00112869 -0.00122717
2.34189e-05 0.00112162 -0.00121755
4.49125e-05 0.00109603 -0.0011814
6.65921e-05 0.00104853 -0.00113244
7.89213e-05 0.000978973 -0.00106962
7.99487e-05 0.000937914 -0.00102925
8.94173e-05 0.000896273 -0.00097877
0.000101451 0.000803345 -0.000864005
0.000107046 0.000698223 -0.000742949
0.000107795 0.000587418 -0.000619549
0.000104904 0.000475839 -0.000497217
9.91136e-05 0.000367169 -0.000378939
8.58455e-05 0.000264324 -0.000267638
6.74869e-05 0.000219547 -0.000219041
5.35223e-05 0.000183954 -0.000180859
4.44265e-05 0.000126744 -0.000121899
3.74883e-05 7.8633e-05 -7.42442e-05
3.37798e-05 3.74617e-05 -3.4942e-05
0 0 0
0 0 0
0 0 0
0 0 0
0 0 0
0 0 0
0 0 0
0 0 0
0 0 0
0 0 0
0 0 0
0 0 0
0 0 0
0 0 0
0 0 0
0 0 0
0 0 0
0 0 0
0 0 0
0 0 0
0 0 0
0 0 0
0 0 0
0 0 0
0 0 0
0 0 0
0 0 0
0 0 0
0 0 0
0 0 0
0 0 0
0 0 0
0 0 0
0 0 0
0 0 0
0 0 0
0 0 0
0 0 0
0 0 0
0 0 0
0 0.000127328 0
0 0.000271115 0
0 0.000446312 0
0 0.000663987 0
0 0.000805558 0
0 0.000987267 0
0 0.00140693 0
0 0.00185457 0
0 0.00231786 0
0 0.00278321 0
0 0.0032345 0
0 0.00365258 0
0 0.00383535 0
0 0.00398726 0
0 0.00422354 0
0 0.00439389 0
0 0.00450227 0
0 0.00452629 0
0 0.00451616 0
0 0.00448262 0
0 0.00435759 0
0 0.0041747 0
0 0.00393128 0
0 0.00377889 0
0 0.00359869 0
0 0.00319114 0
0 0.00275413 0
0 0.00230515 0
0 0.00185856 0
0 0.00142627 0
0 0.00101897 0
0 0.00084083 0
0 0.000699626 0
0 0.00047738 0
0 0.000293952 0
0 0.000139396 0
0 0 0
0.000131605 0 0
0.000147423 0.000111816 3.41853e-05
0.000177659 0.000241053 7.3299e-05
0.00021863 0.000404541 0.000121888
0.000282911 0.00061601 0.00018335
0.000362431 0.000758745 0.00022376
0.000417618 0.000943258 0.000275533
0.000444556 0.00136966 0.00039568
0.000459584 0.00182235 0.000527284
0.000461479 0.00228866 0.000668347
0.000447742 0.00275575 0.000816344
0.000415324 0.0032079 0.00096766
0.000363711 0.00362489 0.00111748
0.000302707 0.00380811 0.00118038
0.000236356 0.00396468 0.00121868
0.000172227 0.00421116 0.00126282
0.000112155 0.00438451 0.00129732
5.32052e-05 0.0044891 0.00132788
-3.60853e-06 0.00451219 0.00133369
-5.92903e-05 0.0045021 0.00132922
-0.000116026 0.00446952 0.00131922
-0.000172416 0.00434828 0.00128135
-0.000231674 0.00416265 0.00124092
-0.00029226 0.00390968 0.00119267
-0.000347413 0.00375291 0.00115375
-0.000393984 0.00357226 0.00109207
-0.000422932 0.0031656 0.000946902
-0.000434652 0.00272773 0.000800966
-0.000432183 0.00227714 0.000658413
-0.000417962 0.00182787 0.000522303
-0.000393118 0.00139104 0.00039477
-0.000342217 0.000977524 0.000277721
-0.000268435 0.000796664 0.000226836
-0.000208397 0.000654119 0.000186315
-0.000169717 0.000437507 0.000123735
-0.000140944 0.000265149 7.43022e-05
-0.000125834 0.000124507 3.46127e-05
0 0 0
0.000247219 0 0
0.000279728 7.99318e-05 6.44147e-05
0.00034287 0.000178226 0.000139122
0.000430091 0.000315486 0.000234004
0.000567029 0.000513584 0.000356951
0.000729253 0.000662718 0.000439583
0.000840664 0.000853452 0.000545853
0.000892801 0.00129415 0.000792966
0.000920834 0.00175498 0.001064
0.000923366 0.00222305 0.00135533
0.000895041 0.00268795 0.00166291
0.000828319 0.00313556 0.00198028
0.000727142 0.00354459 0.00229687
0.000613605 0.00372607 0.00243075
0.00048188 0.00388971 0.00251384
0.00034655 0.00415417 0.00260929
0.000219694 0.00433276 0.002681
0.000103804 0.00443007 0.00274254
-7.85716e-06 0.00445159 0.0027539
-0.000117295 0.00444189 0.00274438
-0.000228808 0.00441121 0.00272407
-0.000348025 0.00429765 0.0026469
-0.00047323 0.00410766 0.00256268
-0.000593513 0.00383826 0.00245889
-0.000695933 0.00367499 0.00237477
-0.000787183 0.00349588 0.00224362
-0.000846788 0.00309638 0.00193715
-0.000870927 0.00266259 0.00163137
-0.000867074 0.0022141 0.00133539
-0.000840479 0.00176345 0.00105449
-0.000792467 0.00131946 0.00079184
-0.000689894 0.000892949 0.000550732
-0.000539567 0.00070612 0.000446008
-0.000411173 0.000556666 0.000362872
-0.000328371 0.000352136 0.000237392
-0.000267976 0.000204717 0.000140832
-0.000236781 9.37974e-05 6.51054e-05
0 0 0
0.000330101 0 0
0.000380071 3.08922e-05 8.65563e-05
0.0004805 7.81553e-05 0.00018933
0.000626358 0.000166371 0.000325172
0.000861755 0.000337621 0.000509688
0.00110613 0.000517052 0.000639759
0.00127545 0.00071613 0.000806222
0.0013466 0.00118515 0.00119488
0.00138132 0.0016546 0.00162116
0.00138059 0.00211549 0.00208038
0.00133539 0.00256376 0.00256929
0.00123104 0.00298929 0.00308058
0.00108491 0.00337123 0.00359632