<?xml version="1.0"?>
<VTKFile type="RectilinearGrid" version="0.1" byte_order="LittleEndian">
<RectilinearGrid WholeExtent="0 37 0 14 0 34">
<Piece Extent="0 37 0 14 0 34">
<PointData>
<DataArray type="Float32" Name="MVP" NumberOfComponents="3" format="ascii">
0 0 0
0 0 0
0 0 0
0 0 0
0 0 0
0 0 0
0 0 0
0 0 0
0 0 0
0 0 0
0 0 0
0 0 0
0 0 0
0 0 0
0 0 0
0 0 0
0 0 0
0 0 0
0 0 0
0 0 0
0 0 0
0 0 0
0 0 0
0 0 0
0 0 0
0 0 0
0 0 0
0 0 0
0 0 0
0 0 0
0 0 0
0 0 0
0 0 0
0 0 0
0 0 0
0 0 0
0 0 0
0 0 0
0 0 0
0 0 1.79329e-05
0 0 3.81018e-05
0 0 6.26326e-05
0 0 9.33578e-05
0 0 0.000113402
0 0 0.000139356
0 0 0.000201853
0 0 0.000271131
0 0 0.00034432
0 0 0.000418007
0 0 0.000488646
0 0 0.00055269
0 0 0.000580917
0 0 0.000606007
0 0 0.000647056
0 0 0.000676906
0 0 0.000695802
0 0 0.000700994
0 0 0.000702859
0 0 0.000699433
0 0 0.000683684
0 0 0.000656254
0 0 0.00061667
0 0 0.000591819
0 0 0.000563394
0 0 0.000498111
0 0 0.000425623
0 0 0.000349797
0 0 0.000274468
0 0 0.00020327
0 0 0.000139192
0 0 0.000112731
0 0 9.25923e-05
0 0 6.21292e-05
0 0 3.78348e-05
0 0 1.78253e-05
0 0 0
0 0 0
0 0 3.38058e-05
0 0 7.22686e-05
0 0 0.000119935
0 0 0.000180741
0 0 0.000220471
0 0 0.000270857
0 0 0.000393344
0 0 0.000530377
0 0 0.000675491
0 0 0.000821383
0 0 0.000960645
0 0 0.00108557
0 0 0.00114069
0 0 0.00119115
0 0 0.00127448
0 0 0.0013337
0 0 0.00136927
0 0 0.00137912
0 0 0.00138266
0 0 0.00137617
0 0 0.00134662
0 0 0.00129195
0 0 0.00121123
0 0 0.00116115
0 0 0.00110567
0 0 0.000978452
0 0 0.000835652
0 0 0.000685636
0 0 0.0005364
0 0 0.000395713
0 0 0.000270305
0 0 0.00021903
0 0 0.000179221
0 0 0.000119048
0 0 7.18533e-05
0 0 3.36574e-05
0 0 0
0 0 0
0 0 4.54696e-05
0 0 9.84129e-05
0 0 0.000166731
0 0 0.00025801
0 0 0.000318427
0 0 0.000388057
0 0 0.000561574
0 0 0.000760284
0 0 0.000971851
0 0 0.00118409
0 0 0.0013853
0 0 0.00156201
0 0 0.00163993
0 0 0.00171558
0 0 0.00184248
0 0 0.00192897
0 0 0.00197557
0 0 0.00198883
0 0 0.00199347
0 0 0.00198464
0 0 0.00194607
0 0 0.00186549
0 0 0.00174159
0 0 0.00166623
0 0 0.00158793
0 0 0.00140841
0 0 0.00120247
0 0 0.000984635
0 0 0.000767448
0 0 0.000563832
0 0 0.000386644
0 0 0.000316084
0 0 0.000255885
0 0 0.000165783
0 0 9.81123e-05
0 0 4.54167e-05
0 0 0
0 0 0
0 0 5.05281e-05
0 0 0.000111772
0 0 0.000197229
0 0 0.000325216
0 0 0.000419672
0 0 0.000490666
0 0 0.000686878
0 0 0.000927391
0 0 0.00118696
0 0 0.00144711
0 0 0.00169233
0 0 0.00189996
0 0 0.00199045
0 0 0.00208813
0 0 0.00225465
0 0 0.00236132
0 0 0.00240814
0 0 0.00242293
0 0 0.00242721
0 0 0.00241653
0 0 0.0023775
0 0 0.00227625
0 0 0.00211167
0 0 0.00201383
0 0 0.00192327
0 0 0.00171356
0 0 0.00146378
0 0 0.001198
0 0 0.000932653
0 0 0.000687075
0 0 0.000487559
0 0 0.000416481
0 0 0.000323133
0 0 0.000196865
0 0 0.00011199
0 0 5.07532e-05
0 0 0
0 0 0
0 0 4.6945e-05
0 0 0.000105601
0 0 0.000193487
0 0 0.000346169
0 0 0.000512152
0 0 0.000538892
0 0 0.000700401
0 0 0.000930891
0 0 0.00118524
0 0 0.00144139
0 0 0.00168601
0 0 0.00190772
0 0 0.00200602
0 0 0.00209495
0 0 0.0022426
0 0 0.00234791
0 0 0.00241135
0 0 0.00242775
0 0 0.00243008
0 0 0.0024159
0 0 0.00235644
0 0 0.002254
0 0 0.00210772
0 0 0.00201888
0 0 0.00192029
0 0 0.00169696
0 0 0.00144969
0 0 0.00119023
0 0 0.000932209
0 0 0.000697979
0 0 0.000533618
0 0 0.000508311
0 0 0.000344427
0 0 0.000193455
0 0 0.000106013
0 0 4.72554e-05
0 0 0
0 0 0
0 0 3.50648e-05
0 0 7.99061e-05
0 0 0.000150741
0 0 0.000285728
0 0 0.000458723
0 0 0.000490044
0 0 0.000624771
0 0 0.000822495
0 0 0.00104243
0 0 0.00126454
0 0 0.00147702
0 0 0.00166985
0 0 0.00175541
0 0 0.00183284
0 0 0.00196139
0 0 0.00205287
0 0 0.00210765
0 0 0.00212162
0 0 0.00212288
0 0 0.00211012
0 0 0.0020575
0 0 0.00196757
0 0 0.00183978
0 0 0.00176242
0 0 0.00167673
0 0 0.00148307
0 0 0.0012692
0 0 0.0010453
0 0 0.000823377
0 0 0.000623718
0 0 0.000488056
0 0 0.000458109
0 0 0.000284986
0 0 0.000150784
0 0 8.02154e-05
0 0 3.52937e-05
0 0 0
0 0 0
0 0 2.17179e-08
0 0 4.46371e-08
0 0 7.07053e-08
0 0 1.03875e-07
0 0 1.29002e-07
0 0 1.19534e-07
0 0 1.00582e-07
0 0 7.88131e-08
0 0 5.3884e-08
0 0 2.70236e-08
0 0 -3.88441e-10
0 0 -2.70053e-08
0 0 -3.94051e-08
0 0 -5.10091e-08
0 0 -7.18002e-08
0 0 -8.91118e-08
0 0 -1.02619e-07
0 0 -1.07867e-07
0 0 -1.154e-07
0 0 -1.17805e-07
0 0 -1.2003e-07
0 0 -1.18965e-07
0 0 -1.15122e-07
0 0 -1.12621e-07
0 0 -1.10066e-07
0 0 -1.04311e-07
0 0 -9.74363e-08
0 0 -8.98742e-08
0 0 -8.2128e-08
0 0 -7.48496e-08
0 0 -6.91724e-08
0 0 -6.78214e-08
0 0 -4.49356e-08
0 0 -2.52357e-08
0 0 -1.41287e-08
0 0 -6.44209e-09
0 0 0
0 0 0
0 0 -3.50225e-05
0 0 -7.98192e-05
0 0 -0.000150603
0 0 -0.000285522
0 0 -0.000458462
0 0 -0.0004898
0 0 -0.000624563
0 0 -0.000822332
0 0 -0.00104232
0 0 -0.00126449
0 0 -0.00147702
0 0 -0.00166991
0 0 -0.00175549
0 0 -0.00183295
0 0 -0.00196154
0 0 -0.00205306
0 0 -0.00210786
0 0 -0.00212184
0 0 -0.00212312
0 0 -0.00211036
0 0 -0.00205774
0 0 -0.00196781
0 0 -0.00184002
0 0 -0.00176265
0 0 -0.00167695
0 0 -0.00148328
0 0 -0.00126939
0 0 -0.00104548
0 0 -0.000823542
0 0 -0.000623867
0 0 -0.00048819
0 0 -0.000458237
0 0 -0.000285073
0 0 -0.000150833
0 0 -8.02431e-05
0 0 -3.53063e-05
0 0 0
0 0 0
0 0 -4.69048e-05
0 0 -0.000105518
0 0 -0.000193356
0 0 -0.000345973
0 0 -0.000511894
0 0 -0.00053864
0 0 -0.000700184
0 0 -0.00093072
0 0 -0.00118512
0 0 -0.00144133
0 0 -0.00168601
0 0 -0.00190778
0 0 -0.00200611
0 0 -0.00209506
0 0 -0.00224276
0 0 -0.00234809
0 0 -0.00241156
0 0 -0.00242798
0 0 -0.00243032
0 0 -0.00241614
0 0 -0.00235669
0 0 -0.00225424
0 0 -0.00210796
0 0 -0.00201911
0 0 -0.00192052
0 0 -0.00169717
0 0 -0.00144989
0 0 -0.00119041
0 0 -0.000932375
0 0 -0.000698128
0 0 -0.000533748
0 0 -0.000508423
0 0 -0.000344506
0 0 -0.000193501
0 0 -0.000106039
0 0 -4.72674e-05
0 0 0
0 0 0
0 0 -5.04915e-05
0 0 -0.000111697
0 0 -0.000197113
0 0 -0.000325052
0 0 -0.000419482
0 0 -0.000490476
0 0 -0.000686714
0 0 -0.000927262
0 0 -0.00118687
0 0 -0.00144707
0 0 -0.00169233
0 0 -0.0019
0 0 -0.00199051
0 0 -0.0020882
0 0 -0.00225476
0 0 -0.00236145
0 0 -0.00240829
0 0 -0.00242309
0 0 -0.00242738
0 0 -0.00241671
0 0 -0.00237767
0 0 -0.00227641
0 0 -0.00211184
0 0 -0.00201399
0 0 -0.00192343
0 0 -0.00171371
0 0 -0.00146391
0 0 -0.00119812
0 0 -0.000932766
0 0 -0.000687177
0 0 -0.000487649
0 0 -0.000416561
0 0 -0.000323197
0 0 -0.000196905
0 0 -0.000112013
0 0 -5.0764e-05
0 0 0
0 0 0
0 0 -4.5442e-05
0 0 -9.83575e-05
0 0 -0.000166648
0 0 -0.000257899
0 0 -0.000318306
0 0 -0.000387936
0 0 -0.000561467
0 0 -0.0007602
0 0 -0.000971793
0 0 -0.00118406
0 0 -0.0013853
0 0 -0.00156204
0 0 -0.00163997
0 0 -0.00171563
0 0 -0.00184255
0 0 -0.00192905
0 0 -0.00197566
0 0 -0.00198892
0 0 -0.00199357
0 0 -0.00198474
0 0 -0.00194617
0 0 -0.00186559
0 0 -0.00174169
0 0 -0.00166633
0 0 -0.00158802
0 0 -0.00140849
0 0 -0.00120255
0 0 -0.000984706
0 0 -0.000767514
0 0 -0.000563891
0 0 -0.000386697
0 0 -0.000316131
0 0 -0.000255925
0 0 -0.00016581
0 0 -9.8129e-05
0 0 -4.54247e-05
0 0 0
0 0 0
0 0 -3.37875e-05
0 0 -7.22323e-05
0 0 -0.000119881
0 0 -0.000180672
0 0 -0.000220397
0 0 -0.000270784
0 0 -0.000393279
0 0 -0.000530325
0 0 -0.000675455
0 0 -0.000821364
0 0 -0.000960643
0 0 -0.00108559
0 0 -0.00114071
0 0 -0.00119118
0 0 -0.00127452
0 0 -0.00133375
0 0 -0.00136933
0 0 -0.00137918
0 0 -0.00138272
0 0 -0.00137623
0 0 -0.00134667
0 0 -0.001292
0 0 -0.00121128
0 0 -0.0011612
0 0 -0.00110573
0 0 -0.0009785
0 0 -0.000835697
0 0 -0.000685677
0 0 -0.000536438
0 0 -0.000395747
0 0 -0.000270335
0 0 -0.000219057
0 0 -0.000179245
0 0 -0.000119065
0 0 -7.1864e-05
0 0 -3.36626e-05
0 0 0
0 0 0
0 0 -1.79238e-05
0 0 -3.80838e-05
0 0 -6.26064e-05
0 0 -9.33247e-05
0 0 -0.000113367
0 0 -0.000139321
0 0 -0.000201822
0 0 -0.000271107
0 0 -0.000344303
0 0 -0.000417998
0 0 -0.000488645
0 0 -0.000552697
0 0 -0.000580928
0 0 -0.00060602
0 0 -0.000647074
0 0 -0.000676929
0 0 -0.000695827
0 0 -0.00070102
0 0 -0.000702887
0 0 -0.000699461
0 0 -0.000683711
0 0 -0.00065628
0 0 -0.000616696
0 0 -0.000591844
0 0 -0.000563419
0 0 -0.000498133
0 0 -0.000425644
0 0 -0.000349816
0 0 -0.000274485
0 0 -0.000203285
0 0 -0.000139206
0 0 -0.000112744
0 0 -9.26035e-05
0 0 -6.21373e-05
0 0 -3.784e-05
0 0 -1.78278e-05
0 0 0
0 0 0
0 0 0
0 0 0
0 0 0
0 0 0
0 0 0
0 0 0
0 0 0
0 0 0
0 0 0
0 0 0
0 0 0
0 0 0
0 0 0
0 0 0
0 0 0
0 0 0
0 0 0
0 0 0
0 0 0
0 0 0
0 0 0
0 0 0
0 0 0
0 0 0
0 0 0
0 0 0
0 0 0
0 0 0
0 0 0
0 0 0
0 0 0
0 0 0
0 0 0
0 0 0
0 0 0
0 0 0
0 0 0
0 0 0
0 1.745e-05 0
0 3.68341e-05 0
0 6.0012e-05 0
0 8.86369e-05 0
0 0.000107343 0
0 0.000131783 0
0 0.000190803 0
0 0.000256277 0
0 0.000325562 0
0 0.000395424 0
0 0.000462464 0
0 0.000523266 0
0 0.000550048 0
0 0.000573824 0
0 0.000612668 0
0 0.000640937 0
0 0.000658901 0
0 0.000663872 0
0 0.000665779 0
0 0.000662605 0
0 0.000647812 0
0 0.000621891 0
0 0.000584307 0
0 0.000560606 0
0 0.000533419 0
0 0.000470831 0
0 0.000401207 0
0 0.000328289 0
0 0.000255809 0
0 0.000187333 0
0 0.000125852 0
0 0.000100671 0
0 8.18111e-05 0
0 5.39378e-05 0
0 3.23141e-05 0
0 1.50458e-05 0
0 0 0
1.67898e-05 0 0
1.88729e-05 1.55429e-05 1.77111e-05
2.29418e-05 3.31923e-05 3.75635e-05
2.87449e-05 5.50729e-05 6.15434e-05
3.7812e-05 8.30564e-05 9.12988e-05
4.94602e-05 0.000101355 0.000111261
5.98459e-05 0.000124198 0.000138729
6.65377e-05 0.000180532 0.000206365
7.04839e-05 0.000244355 0.000281184
7.10891e-05 0.000312307 0.000360264
6.81856e-05 0.000380649 0.000440289
6.17593e-05 0.000445649 0.000517939
5.43077e-05 0.000503274 0.000590055
4.81293e-05 0.000528711 0.000621376
3.91482e-05 0.00055276 0.000646641
2.81549e-05 0.000592831 0.000685915
1.74083e-05 0.00062062 0.00071606
9.05346e-06 0.000636362 0.000737876
6.90057e-07 0.000640797 0.000743855
-7.87451e-06 0.000642517 0.000746217
-1.66209e-05 0.00063971 0.000742463
-2.811e-05 0.000626868 0.000724563
-4.00902e-05 0.000601156 0.000697489
-5.01016e-05 0.000562053 0.000660185
-5.71886e-05 0.000537993 0.000635241
-6.55492e-05 0.000512207 0.000603548
-7.27126e-05 0.00045302 0.000529589
-7.60703e-05 0.000385632 0.000449485
-7.56462e-05 0.000314405 0.000366762
-7.16194e-05 0.000243377 0.000285063
-6.45861e-05 0.000176595 0.000207939
-5.34428e-05 0.000117788 0.000138413
-4.07855e-05 9.42116e-05 0.00011033
-3.09242e-05 7.57856e-05 9.02893e-05
-2.46628e-05 4.86349e-05 6.09211e-05
-2.02999e-05 2.84198e-05 3.72442e-05
-1.80734e-05 1.30104e-05 1.75844e-05
0 0 0
3.1783e-05 0 0
3.61445e-05 1.16294e-05 3.32412e-05
4.47663e-05 2.57514e-05 7.07802e-05
5.70953e-05 4.53776e-05 0.000116615
7.51101e-05 7.37954e-05 0.000173999
9.60536e-05 9.29779e-05 0.000212792
0.000117362 0.000110438 0.000266955
0.000131787 0.000157392 0.000404329
0.000139988 0.000214895 0.000557171
0.000140999 0.000277261 0.000718389
0.000134658 0.000339689 0.000881003
0.00012065 0.00039798 0.00103838
0.000106218 0.000446472 0.00118418
9.7087e-05 0.000467814 0.00124759
7.97856e-05 0.000491677 0.00129919
5.60666e-05 0.000533017 0.00137977
3.28063e-05 0.000558691 0.00144108
1.72295e-05 0.000568793 0.00148479
1.3706e-06 0.000571985 0.00149676
-1.48564e-05 0.000573139 0.00150154
-3.1149e-05 0.000571057 0.00149407
-5.58969e-05 0.000563024 0.00145828
-8.16113e-05 0.000538675 0.00140311
-0.000100855 0.000497588 0.00132635
-0.000111518 0.00047352 0.00127532
-0.000127655 0.000451997 0.00121114
-0.000143157 0.00040256 0.00106159
-0.00015042 0.000342472 0.000899206
-0.000149801 0.000277725 0.000731089
-0.000141488 0.000212728 0.000564553
-0.000126424 0.000152486 0.000407113
-0.0001036 0.00010306 0.000266109
-8.06354e-05 8.4901e-05 0.00021081
-6.10741e-05 6.56672e-05 0.000171991
-4.78878e-05 3.82422e-05 0.000115527
-3.87257e-05 2.0497e-05 7.02913e-05
-3.41024e-05 8.85272e-06 3.30705e-05
0 0 0
4.30611e-05 0 0
5.01346e-05 5.42413e-06 4.43752e-05
6.46838e-05 1.37918e-05 9.5149e-05
8.63902e-05 3.03334e-05 0.000158334
0.000114831 6.52215e-05 0.00023859
0.000132614 9.75473e-05 0.000293166
0.000166288 9.6626e-05 0.000370376
0.000191489 0.00011446 0.000583922
0.000204647 0.000151795 0.000823233
0.000205703 0.000195624 0.00107342
0.000195099 0.000239591 0.00132362
0.000171048 0.000279911 0.00156443
0.000150542 0.0003075 0.00178669
0.000146253 0.000318589 0.00188364
0.000122235 0.000339272 0.00196369
8.23535e-05 0.000376651 0.00208984
4.30055e-05 0.000395242 0.00218458
2.33257e-05 0.00039453 0.00225054
1.85717e-06 0.000395847 0.00226852
-2.00533e-05 0.000395535 0.00227579
-4.05695e-05 0.000393955 0.00226467
-8.2078e-05 0.0003945 0.0022108
-0.000124931 0.000375433 0.00212525
-0.000151478 0.000336922 0.00200453
-0.0001572 0.000315704 0.00192517
-0.000179921 0.000304829 0.00182698
-0.000206234 0.000277656 0.00159901
-0.000218219 0.00023703 0.00135048
-0.000217827 0.000192351 0.00109175
-0.000204665 0.000147294 0.000833333
-0.000178663 0.000108035 0.000587085
-0.000142693 8.77632e-05 0.000368546
-0.000121896 8.81006e-05 0.000289981
-9.13581e-05 5.59254e-05 0.00023581
-6.85725e-05 2.22367e-05 0.000157237
-5.33532e-05 7.87107e-06 9.48436e-05
-4.59551e-05 2.31062e-06 4.43379e-05
0 0 0
4.83753e-05 0 0
5.86822e-05 -6.49381e-06 4.89212e-05
8.1998e-05 -1.12372e-05 0.000105973
0.000122966 -6.47832e-06 0.000179012
0.000182046 4.17656e-05 0.00027351
0.000133846 0.000183175 0.000337007
0.000187553 9.09878e-05 0.000420901
0.000232365 1.58151e-05 0.000732356
0.000252016 -8.75878e-06 0.00107875
0.000253124 -2.33281e-05 0.00143066
0.000238685 -3.52541e-05 0.001776
0.000201596 -4.01513e-05 0.00210475
0.000175358 -1.53296e-05 0.00240659
0.000190014 -1.20638e-06 0.00253918
0.000161617 -2.00534e-05 0.00265086
0.000102367 -6.00576e-05 0.00282992
4.31204e-05 -6.4401e-05 0.00296228
2.63467e-05 -3.20791e-05 0.00305166
1.49557e-06 -2.90809e-05 0.00307574
-2.36873e-05 -3.29122e-05 0.0030856
-4.09169e-05 -3.9651e-05 0.00307087
-0.000102572 -7.94857e-05 0.00299803
-0.000165368 -8.02152e-05 0.00287788
-0.000196161 -4.13822e-05 0.00270543
-0.000181386 -2.2054e-05 0.0025944
-0.000209774 -3.66978e-05 0.00246016
-0.00024973 -6.07937e-05 0.00215074
-0.00026582 -5.23794e-05 0.00181137
-0.000265716 -3.63064e-05 0.00145403
-0.000246519 -1.83728e-05 0.0010904
-0.000201177 7.14327e-06 0.000734302
-0.000144122 7.92724e-05 0.000417074
-0.000188479 0.000171091 0.000332938
-0.000127594 3.08074e-05 0.000271222
-8.57491e-05 -1.60052e-05 0.000178977
-6.18442e-05 -1.81607e-05 0.00010646
-5.12393e-05 -1.01126e-05 4.92798e-05
0 0 0
4.51562e-05 0 0
5.65132e-05 -2.29113e-05 4.52808e-05
8.49588e-05 -4.98907e-05 9.89448e-05
0.000148341 -8.37764e-05 0.000169754
0.00032559 -0.000119665 0.000264536
4.44861e-05 -0.000106028 0.000328297
0.000152712 -0.000103293 0.000358484
0.000222705 -0.000162995 0.000775993
0.000247285 -0.000232911 0.00120942
0.000249624 -0.000305764 0.00162761
0.000238565 -0.000377732 0.00202931
0.000216139 -0.000445721 0.00240712
0.000191416 -0.000506852 0.00274719
0.000172955 -0.000533837 0.0028964
0.000143166 -0.000558206 0.00303007
0.000101404 -0.000598687 0.0032487
6.01424e-05 -0.000627934 0.00340402
2.9949e-05 -0.000646187 0.00349999
-7.09824e-08 -0.000651268 0.00352678
-3.03276e-05 -0.000653342 0.00353826
-6.09845e-05 -0.000650234 0.00352239
-0.000103411 -0.00063553 0.00344608
-0.000146733 -0.000608831 0.00330487
-0.000177817 -0.000569566 0.00309294
-0.000197134 -0.000545269 0.00295962
-0.000223077 -0.000518012 0.00280886
-0.000246889 -0.000455419 0.00246066
-0.000259165 -0.000385138 0.0020704
-0.000258035 -0.000310455 0.00165421
-0.000234804 -0.000234872 0.00122164
-0.0001657 -0.000162808 0.000776147
-5.24842e-05 -0.000103616 0.00035129
-0.000329299 -0.000113313 0.000324211
-0.000152064 -0.000130955 0.000263301
-8.81679e-05 -9.47098e-05 0.000170316
-5.92632e-05 -5.79103e-05 9.97255e-05
-4.76596e-05 -2.7091e-05 4.57611e-05
0 0 0
3.37746e-05 0 0
4.32898e-05 -3.39981e-05 3.36758e-05
6.87092e-05 -7.79323e-05 7.44296e-05
0.000131897 -0.000148234 0.000131248
0.000342016 -0.000283522 0.000218584
5.85146e-05 -0.00045753 0.000312822
0.00013141 -0.000496334 0.000569168
0.000195366 -0.000637125 0.000757618
0.000218125 -0.000838946 0.00104706
0.00022061 -0.00106275 0.00134246
0.00021115 -0.00128869 0.00163212
0.000191612 -0.00150485 0.00190892
0.000169936 -0.00170104 0.00216153
0.0001537 -0.0017881 0.00227312
0.000127407 -0.0018669 0.00237331
9.03545e-05 -0.00199773 0.00253659
5.36677e-05 -0.00209084 0.00264963
2.6836e-05 -0.00214657 0.00271505
1.80728e-07 -0.00216076 0.00273092
-2.66006e-05 -0.00216196 0.0027296
-5.36781e-05 -0.00214892 0.00271247
-9.09767e-05 -0.00209526 0.0026448
-0.000128839 -0.00200365 0.00253016
-0.000155795 -0.00187357 0.00236615
-0.00017247 -0.00179486 0.00226598
-0.000194774 -0.0017077 0.00215464
-0.000215034 -0.00151078 0.00190319
-0.000225123 -0.0012934 0.00162815
-0.00022323 -0.00106594 0.00134057
-0.00020098 -0.000840653 0.00104728
-0.000136742 -0.000638257 0.000759583
-6.04382e-05 -0.000501154 0.000571096
-0.00034691 -0.000470906 0.000313341
-0.000134882 -0.000297088 0.000218375
-7.10751e-05 -0.000160308 0.00013167
-4.52846e-05 -8.6653e-05 7.49859e-05
-3.55851e-05 -3.85215e-05 3.40224e-05
0 0 0
2.47129e-08 0 0
2.58893e-08 -3.39993e-05 2.16647e-08
2.89414e-08 -7.79346e-05 4.36231e-08
3.57563e-08 -0.000148237 6.58805e-08
5.23433e-08 -0.000283524 8.75627e-08
-1.72908e-08 -0.000457526 9.68498e-08
-1.7536e-08 -0.000496328 -5.89716e-09
-2.03231e-08 -0.000637118 -4.18559e-09
-2.34076e-08 -0.00083894 -2.02412e-09
-2.52973e-08 -0.00106275 -1.21024e-09
-2.58656e-08 -0.00128869 -5.34701e-10
-2.51491e-08 -0.00150485 7.58915e-11
-2.34352e-08 -0.00170104 5.80989e-10
-2.19269e-08 -0.0017881 7.75173e-10
-1.96409e-08 -0.0018669 9.2979e-10
-1.63528e-08 -0.00199774 1.13294e-09
-1.27459e-08 -0.00209085 1.21139e-09
-9.87535e-09 -0.00214657 1.18986e-09
-7.05061e-09 -0.00216076 1.14838e-09
-4.44879e-09 -0.00216197 1.0176e-09
-1.97681e-09 -0.00214893 9.39908e-10
1.18245e-09 -0.00209526 7.71674e-10
3.85487e-09 -0.00200365 5.79118e-10
4.96314e-09 -0.00187358 3.63189e-10
5.0527e-09 -0.00179486 2.48918e-10
5.66394e-09 -0.0017077 1.72955e-10
6.7485e-09 -0.00151078 2.51997e-11
7.41657e-09 -0.0012934 -1.20113e-10
7.59826e-09 -0.00106594 -2.46917e-10
7.14426e-09 -0.000840654 -3.6003e-10
5.57781e-09 -0.000638256 -6.24216e-10
2.66264e-09 -0.000501149 -4.07072e-09
4.5788e-08 -0.000470898 -1.86145e-08
1.97467e-08 -0.000297084 -2.02712e-08
1.11617e-08 -0.000160307 -1.60671e-08
7.74066e-09 -8.66524e-05 -1.06017e-08
6.49551e-09 -3.85212e-05 -5.20398e-09
0 0 0
-3.37264e-05 0 0
-4.32393e-05 -2.29154e-05 -3.36338e-05
-6.86522e-05 -4.98992e-05 -7.43451e-05
-0.000131824 -8.37902e-05 -0.000131121
-0.0003419 -0.000119682 -0.000218417
-5.85417e-05 -0.000106031 -0.000312638
-0.000131442 -0.000103276 -0.000569171
-0.000195406 -0.000162976 -0.000757625
-0.000218172 -0.000232897 -0.00104706
-0.000220661 -0.000305755 -0.00134246
-0.000211202 -0.000377728 -0.00163211
-0.000191662 -0.000445722 -0.00190892
-0.000169983 -0.000506858 -0.00216153
-0.000153743 -0.000533845 -0.00227312
-0.000127446 -0.000558215 -0.00237331
-9.03867e-05 -0.000598697 -0.00253659
-5.36927e-05 -0.000627946 -0.00264963
-2.6855e-05 -0.000646199 -0.00271505
-1.94077e-07 -0.00065128 -0.00273092
2.65925e-05 -0.000653353 -0.0027296
5.3675e-05 -0.000650245 -0.00271247
9.098e-05 -0.00063554 -0.0026448
0.000128848 -0.000608839 -0.00253016
0.000155806 -0.000569572 -0.00236616
0.000172481 -0.000545272 -0.00226598
0.000194786 -0.000518016 -0.00215464
0.000215048 -0.000455423 -0.0019032
0.000225138 -0.000385141 -0.00162816
0.000223246 -0.000310457 -0.00134058
0.000200996 -0.000234872 -0.00104729
0.000136757 -0.000162807 -0.000759591
6.04508e-05 -0.000103607 -0.000571111
0.000346992 -0.000113282 -0.000313381
0.00013492 -0.000130939 -0.000218416
7.10967e-05 -9.47032e-05 -0.000131702
4.52997e-05 -5.79073e-05 -7.50067e-05
3.55978e-05 -2.70897e-05 -3.40326e-05
0 0 0
-4.51103e-05 0 0
-5.64651e-05 -6.50109e-06 -4.52407e-05
-8.49045e-05 -1.12532e-05 -9.88645e-05
-0.000148269 -6.5083e-06 -0.000169634
-0.00032546 4.17017e-05 -0.000264378
-4.44898e-05 0.000183039 -0.000328124
-0.00015274 9.08625e-05 -0.000358326
-0.000222745 1.5709e-05 -0.000775862
-0.000247331 -8.84057e-06 -0.00120932
-0.000249675 -2.33825e-05 -0.00162754
-0.000238617 -3.52787e-05 -0.00202927
-0.00021619 -4.01453e-05 -0.00240711
-0.000191463 -1.52945e-05 -0.00274721
-0.000172997 -1.15788e-06 -0.00289643
-0.000143203 -1.99904e-05 -0.00303011
-0.000101435 -5.99656e-05 -0.00324876
-6.01659e-05 -6.42873e-05 -0.00340409
-2.99664e-05 -3.19543e-05 -0.00350006
5.93037e-08 -2.89503e-05 -0.00352685
3.03212e-05 -3.27719e-05 -0.00353833
6.09828e-05 -3.95064e-05 -0.00352247
0.000103416 -7.93299e-05 -0.00344615
0.000146744 -8.00611e-05 -0.00330494
0.00017783 -4.12434e-05 -0.003093
0.000197144 -2.19239e-05 -0.00295968
0.000223089 -3.65658e-05 -0.00280892
0.000246905 -6.06593e-05 -0.00246072
0.000259181 -5.22525e-05 -0.00207045
0.000258052 -3.61899e-05 -0.00165426
0.000234821 -1.82675e-05 -0.00122169
0.00016572 7.23737e-06 -0.000776189
5.25192e-05 7.9351e-05 -0.000351333
0.000329366 0.000171155 -0.000324257
0.000152097 3.08385e-05 -0.000263343
8.81878e-05 -1.59924e-05 -0.000170347
5.92775e-05 -1.81549e-05 -9.97456e-05
4.76717e-05 -1.01101e-05 -4.5771e-05
0 0 0
-4.83332e-05 0 0
-5.86387e-05 5.41503e-06 -4.88846e-05
-8.19509e-05 1.37725e-05 -0.000105901
-0.000122912 3.03009e-05 -0.000178903
-0.000181987 6.51686e-05 -0.000273371
-0.000133839 9.74783e-05 -0.000336858
-0.00018757 9.6557e-05 -0.000420757
-0.000232392 0.000114401 -0.000732233
-0.000252049 0.000151749 -0.00107865
-0.000253159 0.000195593 -0.00143059
-0.000238721 0.000239576 -0.00177596
-0.000201631 0.000279913 -0.00210475
-0.000175392 0.000307517 -0.00240661
-0.000190041 0.000318615 -0.00253921
-0.000161639 0.000339304 -0.0026509
-0.000102386 0.000376695 -0.00282998
-4.31378e-05 0.000395297 -0.00296235
-2.6358e-05 0.000394593 -0.00305173
-1.502e-06 0.000395914 -0.00307581
2.36855e-05 0.000395607 -0.00308568
4.09212e-05 0.000394028 -0.00307095
0.000102576 0.000394572 -0.00299811
0.000165371 0.000375505 -0.00287796
0.000196166 0.000336992 -0.0027055
0.000181399 0.000315773 -0.00259447
0.000209788 0.000304896 -0.00246023
0.000249741 0.000277718 -0.0021508
0.000265831 0.000237087 -0.00181143
0.000265727 0.000192404 -0.00145408
0.00024653 0.000147342 -0.00109045
0.000201189 0.000108078 -0.000734348
0.000144142 8.7801e-05 -0.000417117
0.000188512 8.81331e-05 -0.00033298
0.000127618 5.59486e-05 -0.00027126
8.57655e-05 2.22491e-05 -0.000179005
6.18568e-05 7.87764e-06 -0.000106478
5.12502e-05 2.3135e-06 -4.92888e-05
0 0 0
-4.30288e-05 0 0
-5.0102e-05 1.16198e-05 -4.43474e-05
-6.46507e-05 2.57319e-05 -9.50939e-05
-8.63571e-05 4.53472e-05 -0.000158253
-0.000114804 7.37528e-05 -0.000238487
-0.000132607 9.29297e-05 -0.000293057
-0.000166295 0.000110389 -0.000370269
-0.000191503 0.00015735 -0.000583829
-0.000204665 0.000214862 -0.000823158
-0.000205723 0.000277239 -0.00107337
-0.000195119 0.000339678 -0.00132359
-0.000171068 0.000397981 -0.00156443
-0.00015056 0.000446484 -0.00178671
-0.000146267 0.000467831 -0.00188367
-0.000122246 0.000491698 -0.00196373
-8.23627e-05 0.000533046 -0.00208988
-4.30135e-05 0.000558726 -0.00218463
-2.33305e-05 0.000568833 -0.0022506
-1.85904e-06 0.000572027 -0.00226859
2.00541e-05 0.000573184 -0.00227586
4.05734e-05 0.000571102 -0.00226474
8.20816e-05 0.000563068 -0.00221086
0.000124934 0.000538718 -0.00212531
0.000151482 0.000497631 -0.00200459
0.000157208 0.000473562 -0.00192522
0.00017993 0.000452038 -0.00182704
0.000206241 0.000402597 -0.00159906
0.000218226 0.000342506 -0.00135053
0.000217834 0.000277756 -0.00109179
0.000204672 0.000212756 -0.000833374
0.00017867 0.000152512 -0.000587123
0.000142703 0.000103082 -0.00036858
0.000121911 8.49211e-05 -0.000290013
9.13713e-05 6.56835e-05 -0.000235839
6.85831e-05 3.82525e-05 -0.000157258
5.3362e-05 2.05031e-05 -9.48574e-05
4.59631e-05 8.85553e-06 -4.43447e-05
0 0 0
-3.17614e-05 0 0
-3.6123e-05 1.55333e-05 -3.32227e-05
-4.47453e-05 3.31731e-05 -7.07436e-05
-5.70758e-05 5.50444e-05 -0.000116562
-7.50957e-05 8.30193e-05 -0.000173932
-9.60491e-05 0.000101315 -0.000212722
-0.000117365 0.000124158 -0.000266886
-0.000131794 0.000180496 -0.000404267
-0.000139998 0.000244327 -0.000557122
-0.000141011 0.000312288 -0.000718356
-0.00013467 0.00038064 -0.000880986
-0.000120661 0.00044565 -0.00103838
-0.000106228 0.000503284 -0.0011842
-9.70943e-05 0.000528725 -0.00124761
-7.9791e-05 0.000552778 -0.00129921
-5.60709e-05 0.000592854 -0.0013798
-3.28097e-05 0.000620648 -0.00144112
-1.72312e-05 0.000636394 -0.00148484
-1.37077e-06 0.00064083 -0.0014968
1.48576e-05 0.000642551 -0.00150158
3.11517e-05 0.000639744 -0.00149411
5.58994e-05 0.000626901 -0.00145832
8.16134e-05 0.000601188 -0.00140315
0.000100858 0.000562085 -0.00132639
0.000111523 0.000538024 -0.00127536
0.00012766 0.000512237 -0.00121118
0.000143162 0.000453047 -0.00106163
0.000150424 0.000385657 -0.000899239
0.000149805 0.000314428 -0.000731119
0.000141492 0.000243397 -0.00056458
0.000126428 0.000176613 -0.000407138
0.000103605 0.000117804 -0.000266132
8.06426e-05 9.42266e-05 -0.000210831
6.10813e-05 7.57985e-05 -0.00017201
4.78941e-05 4.86438e-05 -0.000115541
3.87313e-05 2.84254e-05 -7.03005e-05
3.41076e-05 1.30131e-05 -3.30751e-05
0 0 0
-1.67789e-05 0 0
-1.88622e-05 1.74405e-05 -1.77019e-05
-2.29315e-05 3.68152e-05 -3.75454e-05
-2.87357e-05 5.99845e-05 -6.15172e-05
-3.78054e-05 8.86022e-05 -9.12662e-05
-4.94579e-05 0.000107306 -0.000111227
-5.9847e-05 0.000131746 -0.000138695
-6.65407e-05 0.000190771 -0.000206335
-7.04883e-05 0.000256251 -0.00028116
-7.10941e-05 0.000325544 -0.000360248
-6.81907e-05 0.000395416 -0.000440281
-6.17641e-05 0.000462465 -0.000517938
-5.43119e-05 0.000523275 -0.000590062
-4.81324e-05 0.000550062 -0.000621386
-3.91505e-05 0.000573841 -0.000646653
-2.81566e-05 0.00061269 -0.000685932
-1.74096e-05 0.000640962 -0.000716079
-9.05395e-06 0.00065893 -0.000737897
-6.89867e-07 0.000663902 -0.000743877
7.8753e-06 0.000665809 -0.00074624
1.66223e-05 0.000662636 -0.000742486
2.81114e-05 0.000647841 -0.000724585
4.00914e-05 0.00062192 -0.00069751
5.0103e-05 0.000584334 -0.000660205
5.71909e-05 0.000560633 -0.000635261
6.55516e-05 0.000533445 -0.000603567
7.27147e-05 0.000470854 -0.000529606
7.60722e-05 0.000401228 -0.000449501
7.5648e-05 0.000328309 -0.000366777
7.16212e-05 0.000255827 -0.000285076
6.4588e-05 0.000187349 -0.000207952
5.34452e-05 0.000125866 -0.000138424
4.07886e-05 0.000100684 -0.00011034
3.09274e-05 8.18226e-05 -9.02986e-05
2.46658e-05 5.39461e-05 -6.09281e-05
2.03026e-05 3.23194e-05 -3.72487e-05
1.8076e-05 1.50484e-05 -1.75866e-05
0 0 0
0 0 0
0 0 0
0 0 0
0 0 0
0 0 0
0 0 0
0 0 0
0 0 0
0 0 0
0 0 0
0 0 0
0 0 0
0 0 0
0 0 0
0 0 0
0 0 0
0 0 0
0 0 0
0 0 0
0 0 0
0 0 0
0 0 0
0 0 0
0 0 0
0 0 0
0 0 0
0 0 0
0 0 0
0 0 0
0 0 0
0 0 0
0 0 0
0 0 0
0 0 0
0 0 0
0 0 0
0 0 0
0 0 0
0 0 0
0 6.41206e-05 0
0 0.000134968 0
0 0.000218881 0
0 0.00032134 0
0 0.000389631 0
0 0.000483135 0
0 0.000712809 0
0 0.000967151 0
0 0.00123638 0
0 0.00150891 0
0 0.0017729 0
0 0.00201688 0
0 0.00212313 0
0 0.00221059 0
0 0.00234803 0
0 0.00245235 0
0 0.002526 0
0 0.00254636 0
0 0.00255478 0
0 0.00254235 0
0 0.00248255 0
0 0.00238868 0
0 0.00225723 0
0 0.00217023 0
0 0.00206199 0
0 0.0018097 0
0 0.00153441 0
0 0.0012489 0
0 0.000966329 0
0 0.000699528 0
0 0.000459541 0
0 0.000362855 0
0 0.000293934 0
0 0.000194608 0
0 0.000116947 0
0 5.45453e-05 0
0 0 0
6.04307e-05 0 0
6.77039e-05 5.69174e-05 1.76049e-05
8.17707e-05 0.000120743 3.78038e-05
0.000101605 0.000198054 6.30521e-05
0.000136743 0.000294224 9.53929e-05
0.000187821 0.000358899 0.000116982
0.000231394 0.000448451 0.000145822
0.000256978 0.000680398 0.000216747
0.000272424 0.000941229 0.000297118
0.000275894 0.00121708 0.000384343
0.000267112 0.00149482 0.000475081
0.000246463 0.00176223 0.000565561
0.000214194 0.00200715 0.000652194
0.000176034 0.00211405 0.000687842
0.000137528 0.00220463 0.000710041
0.000102862 0.00234868 0.000737646
7.05833e-05 0.00245524 0.000760742
3.64449e-05 0.00252691 0.000782306
2.98758e-06 0.00254675 0.000788335
-3.14038e-05 0.00255513 0.000792045
-6.7368e-05 0.00254318 0.000789499
-0.000102681 0.00248537 0.000773976
-0.000141346 0.00238903 0.00075576
-0.000184534 0.00225043 0.00073151
-0.000227397 0.00216009 0.000709787
-0.000263688 0.00205121 0.000673128
-0.000287074 0.00179816 0.0005827
-0.000297465 0.00151951 0.000487945
-0.00029455 0.00122877 0.000392954
-0.00027868 0.000939397 0.000301886
-0.000251712 0.000665736 0.000218317
-0.000204972 0.000422944 0.000144862
-0.000149357 0.000329997 0.000115225
-0.000110722 0.000264734 9.36217e-05
-8.89265e-05 0.000172107 6.19945e-05
-7.35747e-05 0.000101584 3.72611e-05
-6.5671e-05 4.67721e-05 1.7386e-05
0 0 0
0.000114062 0 0
0.000128865 4.23004e-05 3.29585e-05
0.000157562 9.1757e-05 7.12214e-05
0.00019773 0.000155708 0.000119929
0.000267199 0.000239896 0.000183461
0.00036876 0.000296816 0.000226325
0.000466171 0.000370351 0.000283876
0.000521591 0.000608526 0.000429351
0.000552612 0.00088482 0.000595782
0.000558128 0.00117299 0.00077705
0.000538759 0.001458 0.000966454
0.000494918 0.00172845 0.00115643
0.000430705 0.00197151 0.00133879
0.000359244 0.00207818 0.00141375
0.000282551 0.00217417 0.00146083
0.000208748 0.00233082 0.00151917
0.000139857 0.0024413 0.00156706
7.24952e-05 0.00250827 0.00161132
6.49746e-06 0.00252695 0.00162366
-6.13318e-05 0.00253498 0.00163157
-0.000132295 0.00252391 0.00162666
-0.000207476 0.00247043 0.00159534
-0.000289584 0.00236945 0.00155777
-0.000375565 0.00221699 0.00150622
-0.000455942 0.00212079 0.00145991
-0.000528048 0.0020123 0.00138264
-0.000577475 0.00176183 0.00119201
-0.000600157 0.00148063 0.000992832
-0.000595885 0.00118287 0.000794396
-0.000564207 0.00088108 0.000605066
-0.000506212 0.000591326 0.000432077
-0.000402448 0.000341047 0.000281668
-0.000291385 0.000263447 0.000222648
-0.000214733 0.000206098 0.00017994
-0.000170708 0.000126428 0.000118042
-0.000139557 7.03913e-05 7.03533e-05
-0.000123567 3.10657e-05 3.26405e-05
0 0 0
0.000153792 0 0
0.000176516 1.99394e-05 4.38233e-05
0.000221133 4.67076e-05 9.58065e-05
0.000283408 8.95077e-05 0.000164303
0.000383987 0.000158764 0.000256998
0.000519669 0.000209592 0.000320707
0.000709328 0.000217726 0.000404397