<?xml version="1.0"?>
<VTKFile type="RectilinearGrid" version="0.1" byte_order="LittleEndian">
<RectilinearGrid WholeExtent="0 37 0 14 0 34">
<Piece Extent="0 37 0 14 0 34">
<PointData>
<DataArray type="Float32" Name="MVP" NumberOfComponents="3" format="ascii">
0 0 0
0 0 0
0 0 0
0 0 0
0 0 0
0 0 0
0 0 0
0 0 0
0 0 0
0 0 0
0 0 0
0 0 0
0 0 0
0 0 0
0 0 0
0 0 0
0 0 0
0 0 0
0 0 0
0 0 0
0 0 0
0 0 0
0 0 0
0 0 0
0 0 0
0 0 0
0 0 0
0 0 0
0 0 0
0 0 0
0 0 0
0 0 0
0 0 0
0 0 0
0 0 0
0 0 0
0 0 0
0 0 0
0 0 0
0 0 -2.16987e-05
0 0 -4.55327e-05
0 0 -7.32232e-05
0 0 -0.000105625
0 0 -0.000125691
0 0 -0.000151216
0 0 -0.000208441
0 0 -0.000266422
0 0 -0.000324257
0 0 -0.000380685
0 0 -0.000433172
0 0 -0.00047733
0 0 -0.000497204
0 0 -0.000519263
0 0 -0.00055708
0 0 -0.000579589
0 0 -0.000587
0 0 -0.00058832
0 0 -0.000585939
0 0 -0.000582366
0 0 -0.000570946
0 0 -0.000545353
0 0 -0.000505667
0 0 -0.000483316
0 0 -0.000463729
0 0 -0.000421256
0 0 -0.000371252
0 0 -0.000317686
0 0 -0.000262695
0 0 -0.000207222
0 0 -0.000151994
0 0 -0.000127068
0 0 -0.000107058
0 0 -7.41897e-05
0 0 -4.60764e-05
0 0 -2.1933e-05
0 0 0
0 0 0
0 0 -4.04139e-05
0 0 -8.49185e-05
0 0 -0.000136677
0 0 -0.000196821
0 0 -0.000234062
0 0 -0.000282687
0 0 -0.000391808
0 0 -0.000500749
0 0 -0.00060871
0 0 -0.000713616
0 0 -0.000809908
0 0 -0.000886467
0 0 -0.000921036
0 0 -0.00096502
0 0 -0.0010424
0 0 -0.00108481
0 0 -0.00109276
0 0 -0.00109407
0 0 -0.00108952
0 0 -0.00108391
0 0 -0.00106826
0 0 -0.00102001
0 0 -0.000939264
0 0 -0.000894815
0 0 -0.00086078
0 0 -0.000787383
0 0 -0.000695881
0 0 -0.000596536
0 0 -0.000494097
0 0 -0.000389963
0 0 -0.000284529
0 0 -0.000236927
0 0 -0.000199646
0 0 -0.000138425
0 0 -8.58298e-05
0 0 -4.0784e-05
0 0 0
0 0 0
0 0 -5.29501e-05
0 0 -0.000111251
0 0 -0.000178358
0 0 -0.000253166
0 0 -0.000297628
0 0 -0.00036062
0 0 -0.00050293
0 0 -0.000640365
0 0 -0.000775107
0 0 -0.000905359
0 0 -0.0010217
0 0 -0.00109972
0 0 -0.00113454
0 0 -0.00119828
0 0 -0.00131538
0 0 -0.00136925
0 0 -0.00136072
0 0 -0.00135921
0 0 -0.00135315
0 0 -0.00134889
0 0 -0.00134699
0 0 -0.00128544
0 0 -0.00116437
0 0 -0.00110025
0 0 -0.00106606
0 0 -0.000992062
0 0 -0.000882241
0 0 -0.00075969
0 0 -0.000632623
0 0 -0.000501756
0 0 -0.000364084
0 0 -0.000302078
0 0 -0.000257103
0 0 -0.000180398
0 0 -0.000112138
0 0 -5.3254e-05
0 0 0
0 0 0
0 0 -5.60303e-05
0 0 -0.000116929
0 0 -0.000183149
0 0 -0.000241737
0 0 -0.00025993
0 0 -0.000308707
0 0 -0.000425239
0 0 -0.000527589
0 0 -0.000626551
0 0 -0.000722327
0 0 -0.000803049
0 0 -0.000817854
0 0 -0.000819651
0 0 -0.000890774
0 0 -0.00102807
0 0 -0.00106938
0 0 -0.00101442
0 0 -0.00100745
0 0 -0.00100154
0 0 -0.00100284
0 0 -0.00104719
0 0 -0.000998449
0 0 -0.000858269
0 0 -0.000787298
0 0 -0.000785808
0 0 -0.000774406
0 0 -0.000700375
0 0 -0.000612766
0 0 -0.000522124
0 0 -0.000426906
0 0 -0.000314639
0 0 -0.000265671
0 0 -0.00024575
0 0 -0.000184502
0 0 -0.000117182
0 0 -5.59908e-05
0 0 0
0 0 0
0 0 -5.02744e-05
0 0 -0.000104028
0 0 -0.000158081
0 0 -0.000183669
0 0 -0.000128291
0 0 -0.000118687
0 0 -0.000103897
0 0 -9.03767e-05
0 0 -7.86326e-05
0 0 -6.98505e-05
0 0 -6.43243e-05
0 0 -6.16492e-05
0 0 -6.09623e-05
0 0 -6.05118e-05
0 0 -5.98066e-05
0 0 -5.83783e-05
0 0 -5.58633e-05
0 0 -5.42378e-05
0 0 -5.03701e-05
0 0 -4.83199e-05
0 0 -4.42328e-05
0 0 -4.09336e-05
0 0 -3.93921e-05
0 0 -3.97241e-05
0 0 -4.09431e-05
0 0 -4.6474e-05
0 0 -5.66127e-05
0 0 -7.1086e-05
0 0 -8.89683e-05
0 0 -0.000108381
0 0 -0.000127143
0 0 -0.000134725
0 0 -0.000187088
0 0 -0.000158894
0 0 -0.000103965
0 0 -5.00959e-05
0 0 0
0 0 0
0 0 -3.66574e-05
0 0 -7.54474e-05
0 0 -0.000112661
0 0 -0.000123443
0 0 -7.14699e-05
0 0 -2.58081e-05
0 0 3.08429e-05
0 0 8.21734e-05
0 0 0.000132036
0 0 0.000178995
0 0 0.000221773
0 0 0.00025908
0 0 0.000275244
0 0 0.000289683
0 0 0.000313327
0 0 0.000330447
0 0 0.000341593
0 0 0.000345028
0 0 0.000347617
0 0 0.000346642
0 0 0.000339916
0 0 0.000325968
0 0 0.000303852
0 0 0.000289513
0 0 0.000273019
0 0 0.000233863
0 0 0.000188053
0 0 0.000137339
0 0 8.34722e-05
0 0 2.85452e-05
0 0 -2.96515e-05
0 0 -7.33935e-05
0 0 -0.000125168
0 0 -0.000113115
0 0 -7.53676e-05
0 0 -3.65158e-05
0 0 0
0 0 0
0 0 2.24224e-08
0 0 4.58706e-08
0 0 7.2116e-08
0 0 1.0503e-07
0 0 1.30103e-07
0 0 1.21315e-07
0 0 9.74953e-08
0 0 6.95414e-08
0 0 3.76622e-08
0 0 3.78166e-09
0 0 -2.99036e-08
0 0 -6.1284e-08
0 0 -7.52003e-08
0 0 -8.76275e-08
0 0 -1.08114e-07
0 0 -1.22607e-07
0 0 -1.30875e-07
0 0 -1.32689e-07
0 0 -1.31861e-07
0 0 -1.29499e-07
0 0 -1.21184e-07
0 0 -1.08482e-07
0 0 -9.23574e-08
0 0 -8.38054e-08
0 0 -7.5485e-08
0 0 -5.87133e-08
0 0 -4.13014e-08
0 0 -2.39314e-08
0 0 -7.3715e-09
0 0 7.41778e-09
0 0 1.87545e-08
0 0 2.16605e-08
0 0 9.92356e-09
0 0 1.01717e-09
0 0 -1.41429e-09
0 0 -1.17079e-09
0 0 0
0 0 0
0 0 3.6701e-05
0 0 7.55366e-05
0 0 0.000112802
0 0 0.000123649
0 0 7.17306e-05
0 0 2.60557e-05
0 0 -3.06401e-05
0 0 -8.2028e-05
0 0 -0.000131957
0 0 -0.000178987
0 0 -0.000221834
0 0 -0.000259206
0 0 -0.0002754
0 0 -0.000289864
0 0 -0.00031355
0 0 -0.000330699
0 0 -0.000341861
0 0 -0.0003453
0 0 -0.000347887
0 0 -0.000346907
0 0 -0.000340164
0 0 -0.000326189
0 0 -0.00030404
0 0 -0.000289683
0 0 -0.000273173
0 0 -0.000233983
0 0 -0.000188138
0 0 -0.000137388
0 0 -8.34873e-05
0 0 -2.85288e-05
0 0 2.96967e-05
0 0 7.345e-05
0 0 0.000125194
0 0 0.000113119
0 0 7.53654e-05
0 0 3.65137e-05
0 0 0
0 0 0
0 0 5.03159e-05
0 0 0.000104112
0 0 0.000158213
0 0 0.000183865
0 0 0.000128544
0 0 0.000118939
0 0 0.000104107
0 0 9.05277e-05
0 0 7.87148e-05
0 0 6.98597e-05
0 0 6.4261e-05
0 0 6.15181e-05
0 0 6.08011e-05
0 0 6.03252e-05
0 0 5.95781e-05
0 0 5.81202e-05
0 0 5.55886e-05
0 0 5.39597e-05
0 0 5.00948e-05
0 0 4.80499e-05
0 0 4.39806e-05
0 0 4.07085e-05
0 0 3.92025e-05
0 0 3.95538e-05
0 0 4.0789e-05
0 0 4.63533e-05
0 0 5.65281e-05
0 0 7.10374e-05
0 0 8.89543e-05
0 0 0.0001084
0 0 0.000127197
0 0 0.000134806
0 0 0.00018712
0 0 0.000158899
0 0 0.000103963
0 0 5.00939e-05
0 0 0
0 0 0
0 0 5.6068e-05
0 0 0.000117005
0 0 0.000183267
0 0 0.000241901
0 0 0.000260118
0 0 0.000308896
0 0 0.000425397
0 0 0.000527705
0 0 0.000626617
0 0 0.000722341
0 0 0.00080301
0 0 0.000817764
0 0 0.000819537
0 0 0.000890644
0 0 0.00102791
0 0 0.0010692
0 0 0.00101423
0 0 0.00100725
0 0 0.00100134
0 0 0.00100265
0 0 0.00104702
0 0 0.000998292
0 0 0.000858131
0 0 0.00078717
0 0 0.000785693
0 0 0.000774316
0 0 0.000700308
0 0 0.000612721
0 0 0.000522101
0 0 0.000426904
0 0 0.00031466
0 0 0.000265701
0 0 0.000245766
0 0 0.000184504
0 0 0.000117179
0 0 5.59888e-05
0 0 0
0 0 0
0 0 5.29786e-05
0 0 0.000111308
0 0 0.000178443
0 0 0.000253278
0 0 0.000297749
0 0 0.000360741
0 0 0.000503033
0 0 0.000640442
0 0 0.000775153
0 0 0.000905372
0 0 0.00102168
0 0 0.00109967
0 0 0.00113447
0 0 0.0011982
0 0 0.00131529
0 0 0.00136914
0 0 0.00136061
0 0 0.00135909
0 0 0.00135303
0 0 0.00134877
0 0 0.00134689
0 0 0.00128534
0 0 0.00116428
0 0 0.00110017
0 0 0.00106599
0 0 0.000992004
0 0 0.000882195
0 0 0.000759656
0 0 0.0006326
0 0 0.000501744
0 0 0.000364083
0 0 0.00030208
0 0 0.000257103
0 0 0.000180395
0 0 0.000112135
0 0 5.32519e-05
0 0 0
0 0 0
0 0 4.04329e-05
0 0 8.4956e-05
0 0 0.000136731
0 0 0.000196891
0 0 0.000234136
0 0 0.000282761
0 0 0.000391871
0 0 0.000500797
0 0 0.000608739
0 0 0.000713625
0 0 0.000809897
0 0 0.000886437
0 0 0.000920998
0 0 0.000964975
0 0 0.00104234
0 0 0.00108475
0 0 0.0010927
0 0 0.001094
0 0 0.00108945
0 0 0.00108384
0 0 0.0010682
0 0 0.00101995
0 0 0.000939215
0 0 0.000894768
0 0 0.000860737
0 0 0.000787347
0 0 0.000695852
0 0 0.000596513
0 0 0.00049408
0 0 0.000389952
0 0 0.000284523
0 0 0.000236923
0 0 0.000199642
0 0 0.000138421
0 0 8.58269e-05
0 0 4.07825e-05
0 0 0
0 0 0
0 0 2.17081e-05
0 0 4.55512e-05
0 0 7.32501e-05
0 0 0.000105659
0 0 0.000125726
0 0 0.000151251
0 0 0.000208471
0 0 0.000266445
0 0 0.000324271
0 0 0.00038069
0 0 0.000433167
0 0 0.000477316
0 0 0.000497187
0 0 0.000519242
0 0 0.000557055
0 0 0.000579561
0 0 0.000586969
0 0 0.000588289
0 0 0.000585908
0 0 0.000582336
0 0 0.000570918
0 0 0.000545327
0 0 0.000505644
0 0 0.000483294
0 0 0.000463709
0 0 0.000421239
0 0 0.000371238
0 0 0.000317674
0 0 0.000262686
0 0 0.000207216
0 0 0.00015199
0 0 0.000127065
0 0 0.000107056
0 0 7.41874e-05
0 0 4.60747e-05
0 0 2.19321e-05
0 0 0
0 0 0
0 0 0
0 0 0
0 0 0
0 0 0
0 0 0
0 0 0
0 0 0
0 0 0
0 0 0
0 0 0
0 0 0
0 0 0
0 0 0
0 0 0
0 0 0
0 0 0
0 0 0
0 0 0
0 0 0
0 0 0
0 0 0
0 0 0
0 0 0
0 0 0
0 0 0
0 0 0
0 0 0
0 0 0
0 0 0
0 0 0
0 0 0
0 0 0
0 0 0
0 0 0
0 0 0
0 0 0
0 0 0
0 0 0
0 -2.21899e-05 0
0 -4.68678e-05 0
0 -7.60668e-05 0
0 -0.000110854 0
0 -0.000132454 0
0 -0.000159722 0
0 -0.000220973 0
0 -0.000283387 0
0 -0.000345788 0
0 -0.000406701 0
0 -0.000463417 0
0 -0.000511391 0
0 -0.000532968 0
0 -0.000556578 0
0 -0.000597007 0
0 -0.000621403 0
0 -0.000629944 0
0 -0.000631544 0
0 -0.00062916 0
0 -0.000625314 0
0 -0.000612817 0
0 -0.000585489 0
0 -0.000543486 0
0 -0.000519795 0
0 -0.000498765 0
0 -0.000453141 0
0 -0.000399789 0
0 -0.00034283 0
0 -0.000284537 0
0 -0.000225933 0
0 -0.000167738 0
0 -0.000141345 0
0 -0.000119862 0
0 -8.39797e-05 0
0 -5.27072e-05 0
0 -2.52816e-05 0
0 0 0
-2.30229e-05 0 0
-2.53347e-05 -1.90299e-05 -2.27678e-05
-2.95307e-05 -4.03814e-05 -4.84196e-05
-3.46985e-05 -6.58403e-05 -7.95993e-05
-4.27796e-05 -9.59576e-05 -0.000118192
-5.39054e-05 -0.000114719 -0.000142922
-6.03293e-05 -0.000139646 -0.000173158
-6.12133e-05 -0.000195773 -0.000239089
-6.10438e-05 -0.000251314 -0.000307061
-5.9528e-05 -0.000306092 -0.0003762
-5.54297e-05 -0.000359104 -0.000445843
-4.69134e-05 -0.000407169 -0.000514802
-4.23481e-05 -0.000443409 -0.000581114
-4.66067e-05 -0.000459813 -0.000610263
-4.0138e-05 -0.000483297 -0.00063287
-2.45955e-05 -0.000525479 -0.000666825
-9.2592e-06 -0.000547272 -0.000692355
-4.3096e-06 -0.000548948 -0.000710102
8.89913e-07 -0.000549209 -0.000713646
5.83231e-06 -0.000547038 -0.000710668
1.02809e-05 -0.000544724 -0.000704317
2.46786e-05 -0.000539403 -0.000681625
3.8972e-05 -0.000514993 -0.000652222
4.41129e-05 -0.000471579 -0.000615791
3.86511e-05 -0.000448116 -0.000592793
4.20313e-05 -0.000432194 -0.000564136
4.95975e-05 -0.000398046 -0.000500236
5.31153e-05 -0.000353121 -0.000434506
5.44249e-05 -0.00030388 -0.00036843
5.47547e-05 -0.000253091 -0.000302745
5.43856e-05 -0.000201328 -0.000237769
4.9e-05 -0.000148267 -0.00017422
3.9193e-05 -0.000124189 -0.000144701
3.21215e-05 -0.000105497 -0.000119985
2.75173e-05 -7.41764e-05 -8.07428e-05
2.36736e-05 -4.65104e-05 -4.90423e-05
2.15314e-05 -2.22679e-05 -2.30314e-05
0 0 0
-4.27547e-05 0 0
-4.71851e-05 -1.2511e-05 -4.30463e-05
-5.51093e-05 -2.66573e-05 -9.22286e-05
-6.4437e-05 -4.31267e-05 -0.000153548
-7.95313e-05 -6.00984e-05 -0.000231955
-0.000102741 -6.90291e-05 -0.000283953
-0.000115115 -8.54363e-05 -0.000347503
-0.000115126 -0.000123337 -0.000483094
-0.000114047 -0.000156702 -0.00062136
-0.00011075 -0.000188279 -0.000761359
-0.000101821 -0.000218232 -0.000902429
-8.17249e-05 -0.000242592 -0.00104267
-7.40014e-05 -0.000247926 -0.00117884
-9.2625e-05 -0.000249902 -0.00123899
-8.17141e-05 -0.000271228 -0.00128504
-4.63015e-05 -0.000313588 -0.0013541
-1.13925e-05 -0.00032694 -0.00140652
-5.69867e-06 -0.000311592 -0.00144364
1.78895e-06 -0.00030906 -0.001451
8.80088e-06 -0.000307535 -0.00144499
1.35676e-05 -0.000308604 -0.00143195
4.65901e-05 -0.000321254 -0.00138484
7.94741e-05 -0.000306156 -0.00132468
8.78663e-05 -0.0002634 -0.00125082
6.71683e-05 -0.000242319 -0.00120408
7.26515e-05 -0.000240629 -0.00114496
9.08183e-05 -0.000236662 -0.00101369
9.8564e-05 -0.000214754 -0.000880044
0.000101408 -0.000187933 -0.000746262
0.000102754 -0.000159867 -0.000613296
0.000103747 -0.000130072 -0.000481028
9.34809e-05 -9.52421e-05 -0.000349986
7.29036e-05 -7.96042e-05 -0.000287699
5.97566e-05 -7.06268e-05 -0.000235526
5.14708e-05 -5.22538e-05 -0.000155613
4.41864e-05 -3.33302e-05 -9.32609e-05
4.00623e-05 -1.60243e-05 -4.34554e-05
0 0 0
-5.57326e-05 0 0
-6.15406e-05 -2.59781e-06 -5.81244e-05
-7.12914e-05 -5.05782e-06 -0.000126185
-8.04363e-05 -4.79339e-06 -0.000215147
-9.58585e-05 9.41721e-06 -0.000336781
-0.000133685 3.37669e-05 -0.000424388
-0.000150749 4.53922e-05 -0.000531385
-0.000145952 6.55555e-05 -0.00074706
-0.000142974 9.54055e-05 -0.000961878
-0.000138077 0.000126266 -0.00117774
-0.000123708 0.000156081 -0.00139526
-8.48723e-05 0.000187354 -0.00161257
-7.60776e-05 0.000246643 -0.00182739
-0.000133636 0.000277919 -0.00192321
-0.000122816 0.000268948 -0.00199441
-5.89704e-05 0.000246096 -0.00210129
4.04014e-06 0.000256747 -0.00218435
-9.97367e-07 0.00030204 -0.00224569
2.51061e-06 0.000307221 -0.0022576
5.43056e-06 0.000307082 -0.00224847
-7.30889e-07 0.000301807 -0.00222793
5.95136e-05 0.000256683 -0.00215136
0.000119574 0.000245724 -0.00205674
0.000127062 0.000267359 -0.00194309
6.74001e-05 0.000275701 -0.00187108
7.32333e-05 0.000244617 -0.00177688
0.000109139 0.000185589 -0.00156953
0.000121714 0.000153627 -0.00136241
0.000125826 0.00012255 -0.00115621
0.000129017 8.97668e-05 -0.000951287
0.000135197 5.71955e-05 -0.00074558
0.000121417 3.39192e-05 -0.000536108
8.7486e-05 2.16871e-05 -0.000430352
7.46512e-05 -2.36171e-06 -0.000341803
6.67863e-05 -1.49664e-05 -0.000217482
5.78118e-05 -1.24666e-05 -0.000127123
5.23771e-05 -6.48669e-06 -5.84254e-05
0 0 0
-5.85124e-05 0 0
-6.38442e-05 1.23417e-05 -6.50295e-05
-7.01828e-05 2.71856e-05 -0.000143854
-6.43265e-05 5.14661e-05 -0.00025468
-4.42476e-05 0.000116249 -0.000425935
-0.000106921 0.000261601 -0.000575059
-0.000126627 0.00037425 -0.000757408
-0.000111994 0.00063021 -0.0010791
-0.000108002 0.0008566 -0.0013862
-0.000104253 0.00107312 -0.00169282
-8.86475e-05 0.00127759 -0.00200148
-2.2154e-05 0.00144571 -0.00230939
-1.047e-05 0.00147672 -0.00262013
-0.000148798 0.00147992 -0.00276134
-0.000143343 0.00162146 -0.00286172
-4.66549e-05 0.00189478 -0.00301554
5.03183e-05 0.00197834 -0.00313894
9.84416e-06 0.00187232 -0.00323477
2.34903e-06 0.00186135 -0.00325221
-5.63399e-06 0.00185727 -0.00323987
-4.6855e-05 0.00186426 -0.00321074
4.69256e-05 0.00196229 -0.00309422
0.000138989 0.0018733 -0.00295555
0.000141139 0.00159863 -0.00279358
2.39495e-06 0.00145757 -0.00269249
1.10733e-05 0.00145384 -0.00255345
7.38081e-05 0.00142372 -0.00225262
8.72041e-05 0.00125942 -0.00195872
8.97223e-05 0.00105937 -0.00166601
9.3433e-05 0.000846228 -0.00137503
0.000109377 0.000620223 -0.00108085
9.45977e-05 0.000359916 -0.000766337
3.68424e-05 0.000246664 -0.000582846
5.90329e-05 0.000102825 -0.000430624
6.58713e-05 3.97802e-05 -0.000255764
6.01904e-05 1.86736e-05 -0.000143825
5.51939e-05 7.88732e-06 -6.48432e-05
0 0 0
-5.23352e-05 0 0
-5.62134e-05 2.82636e-05 -6.01077e-05
-5.73991e-05 5.8986e-05 -0.000134191
-3.05317e-05 9.29668e-05 -0.000243027
0.000103498 0.000122111 -0.000431073
8.92832e-06 0.000114983 -0.000660698
4.51866e-06 0.000179964 -0.000951964
4.24803e-06 0.000256505 -0.00136765
3.22359e-06 0.000326901 -0.0017421
8.41392e-07 0.000398334 -0.00212128
-1.88152e-06 0.000470062 -0.00250337
-4.17403e-06 0.00054018 -0.00287787
-5.01452e-06 0.000605456 -0.00322755
-5.16619e-06 0.000634634 -0.00338425
-4.86315e-06 0.000660997 -0.00352584
-3.44323e-06 0.000704178 -0.00375749
-1.64666e-06 0.00073364 -0.00391512
-3.76215e-07 0.000749761 -0.00400102
7.74525e-07 0.000753102 -0.00401862
1.53866e-06 0.00075056 -0.00400438
2.05223e-06 0.000744801 -0.00397323
1.94395e-06 0.000724333 -0.00386296
8.1036e-07 0.000691756 -0.00368785
-1.00639e-06 0.000647103 -0.003448
-2.55952e-06 0.000620672 -0.00330611
-5.39074e-06 0.000591857 -0.00315153
-9.87982e-06 0.000528469 -0.00281252
-1.43766e-05 0.000461311 -0.00245438
-1.8278e-05 0.000393107 -0.00209143
-2.06784e-05 0.000325233 -0.00173142
-2.12711e-05 0.000257648 -0.00137337
-1.85603e-05 0.0001805 -0.000967562
-0.00010741 0.00010672 -0.000668451
2.63229e-05 0.000108799 -0.000434125
5.37102e-05 7.97965e-05 -0.000243178
5.3031e-05 4.9246e-05 -0.000133703
4.94309e-05 2.31709e-05 -5.97317e-05
0 0 0
-3.81429e-05 0 0
-4.05698e-05 3.79303e-05 -4.39654e-05
-3.96395e-05 7.78036e-05 -9.78804e-05
-1.42891e-05 0.000115672 -0.000174893
9.94399e-05 0.000126203 -0.000294447
8.66359e-05 7.32154e-05 -0.000387791
5.28018e-05 1.92962e-05 0.000345804
4.84754e-05 -4.44654e-05 0.000540824
4.7577e-05 -0.00010073 0.000761439
4.49949e-05 -0.000155242 0.000987592
4.10084e-05 -0.000206768 0.00120858
3.56604e-05 -0.00025391 0.00141883
3.07382e-05 -0.000295199 0.0016099
2.7317e-05 -0.000313142 0.00169409
2.21159e-05 -0.000329199 0.00176959
1.56292e-05 -0.000355552 0.00189261
9.69383e-06 -0.000374611 0.00197813
5.45384e-06 -0.000386908 0.00202828
1.20624e-06 -0.000390627 0.00204085
-3.29956e-06 -0.000393199 0.00204136
-8.0434e-06 -0.000391925 0.00202928
-1.52392e-05 -0.000384023 0.00198
-2.34008e-05 -0.000368127 0.00189512
-2.9977e-05 -0.000343315 0.00177243
-3.43029e-05 -0.000327375 0.00169697
-4.05049e-05 -0.000309129 0.00161276
-4.72344e-05 -0.000266069 0.00142147
-5.22614e-05 -0.000216024 0.00121087
-5.55793e-05 -0.00016098 0.000989477
-5.67853e-05 -0.000103019 0.000762946
-5.99532e-05 -4.4819e-05 0.000541934
-8.87056e-05 1.46521e-05 0.00034597
-0.000104884 5.76451e-05 -0.000385914
1.08298e-05 0.000110023 -0.00029489
3.68823e-05 0.000101085 -0.000174778
3.82465e-05 6.72221e-05 -9.74875e-05
3.6035e-05 3.24319e-05 -4.36818e-05
0 0 0
2.57334e-08 0 0
2.67145e-08 3.79291e-05 2.27104e-08
2.93637e-08 7.78012e-05 4.55865e-08
3.56336e-08 0.000115669 6.8472e-08
5.22069e-08 0.000126201 9.02488e-08
-1.61043e-08 7.3217e-05 9.90087e-08
-2.27154e-08 1.93016e-05 7.34513e-09
-2.69514e-08 -4.44575e-05 -3.15409e-09
-3.08981e-08 -0.000100724 -1.62317e-09
-3.29216e-08 -0.000155238 -8.85256e-10
-3.27741e-08 -0.000206766 -3.17176e-10
-3.05489e-08 -0.000253911 1.84091e-10
-2.70847e-08 -0.000295203 5.95928e-10
-2.41701e-08 -0.000313146 7.4945e-10
-1.98991e-08 -0.000329204 8.53456e-10
-1.4037e-08 -0.000355558 9.71617e-10
-7.94285e-09 -0.000374618 9.83133e-10
-3.38983e-09 -0.000386915 9.07279e-10
9.81518e-10 -0.000390633 8.41295e-10
4.80784e-09 -0.000393205 6.67889e-10
8.33741e-09 -0.000391931 5.72681e-10
1.26563e-08 -0.000384029 3.80231e-10
1.60293e-08 -0.000368131 1.64675e-10
1.69894e-08 -0.000343318 -8.15665e-11
1.65236e-08 -0.000327378 -2.15437e-10
1.66463e-08 -0.000309131 -2.83409e-10
1.72781e-08 -0.000266072 -4.19896e-10
1.72366e-08 -0.000216026 -5.66461e-10
1.64352e-08 -0.000160981 -6.97991e-10
1.46822e-08 -0.000103019 -8.29704e-10
1.12612e-08 -4.48175e-05 -1.27392e-09
5.78592e-09 1.46598e-05 -6.17351e-09
-2.34534e-08 5.76582e-05 -2.19655e-08
-8.85886e-09 0.00011003 -1.59976e-08
-2.37577e-09 0.000101087 -9.5805e-09
2.99136e-10 6.72228e-05 -5.58423e-09
1.22615e-09 3.24321e-05 -2.60808e-09
0 0 0
3.8193e-05 0 0
4.06219e-05 2.82594e-05 4.40094e-05
3.96972e-05 5.89772e-05 9.79686e-05
1.43613e-05 9.29522e-05 0.000175025
-9.93263e-05 0.000122091 0.000294619
-8.66576e-05 0.00011497 0.000387979
-5.28425e-05 0.000179972 -0.000345769
-4.85287e-05 0.000256519 -0.000540814
-4.76392e-05 0.000326912 -0.000761431
-4.50613e-05 0.00039834 -0.000987585
-4.10745e-05 0.000470063 -0.00120858
-3.5722e-05 0.000540177 -0.00141883
-3.07926e-05 0.000605447 -0.0016099
-2.73646e-05 0.000634623 -0.00169409
-2.21547e-05 0.000660986 -0.0017696
-1.56563e-05 0.000704167 -0.00189262
-9.7086e-06 0.000733628 -0.00197814
-5.45934e-06 0.000749749 -0.00202829
-1.20291e-06 0.00075309 -0.00204086
3.31054e-06 0.000750549 -0.00204137
8.06138e-06 0.000744792 -0.00202929
1.5266e-05 0.000724325 -0.00198001
2.34347e-05 0.000691749 -0.00189513
3.00127e-05 0.0006471 -0.00177244
3.43366e-05 0.000620672 -0.00169698
4.05386e-05 0.000591856 -0.00161277
4.72698e-05 0.000528467 -0.00142148
5.22967e-05 0.000461311 -0.00121088
5.56131e-05 0.000393108 -0.000989489
5.68167e-05 0.000325235 -0.000762958
5.99819e-05 0.000257652 -0.000541947
8.87281e-05 0.000180517 -0.000345991
0.000104824 0.000106771 0.000385865
-1.08522e-05 0.00010881 0.000294856
-3.68883e-05 7.97982e-05 0.000174758
-3.82463e-05 4.92466e-05 9.74764e-05
-3.60328e-05 2.31712e-05 4.36766e-05
0 0 0
5.2383e-05 0 0
5.62629e-05 1.23343e-05 6.01496e-05
5.74538e-05 2.71695e-05 0.000134275
3.0601e-05 5.14364e-05 0.000243152
-0.000103376 0.000116188 0.000431235
-8.92345e-06 0.000261474 0.000660875
-4.55212e-06 0.000374125 0.000952124
-4.29896e-06 0.000630107 0.00136778
-3.28396e-06 0.000856531 0.0017422
-9.06106e-07 0.00107309 0.00212134
1.81719e-06 0.0012776 0.0025034
4.11391e-06 0.00144576 0.00287787
4.96144e-06 0.0014768 0.00322753
5.12217e-06 0.00148001 0.00338421
4.82747e-06 0.00162158 0.00352579
3.41888e-06 0.00189493 0.00375742
1.63451e-06 0.0019785 0.00391505
3.7336e-07 0.00187249 0.00400094
-7.68623e-07 0.00186151 0.00401854
-1.52525e-06 0.00185743 0.0040043
-2.03226e-06 0.00186442 0.00397315
-1.91508e-06 0.00196245 0.00386289
-7.73674e-07 0.00187343 0.00368778
1.04593e-06 0.00159873 0.00344793
2.59294e-06 0.00145765 0.00330604
5.4248e-06 0.00145391 0.00315146
9.9163e-06 0.00142378 0.00281246
1.4413e-05 0.00125946 0.00245433
1.83127e-05 0.00105938 0.00209138
2.07111e-05 0.00084621 0.00173137
2.13063e-05 0.000620183 0.00137332
1.86168e-05 0.000359851 0.00096751
0.000107311 0.000246561 0.000668392
-2.63498e-05 0.000102793 0.00043409
-5.37168e-05 3.97734e-05 0.000243158
-5.3031e-05 1.86723e-05 0.000133692
-4.94288e-05 7.8872e-06 5.97268e-05
0 0 0
5.85562e-05 0 0
6.38891e-05 -2.60706e-06 6.50677e-05
7.02304e-05 -5.07726e-06 0.00014393
6.43797e-05 -4.82574e-06 0.000254793
4.43046e-05 9.36547e-06 0.000426078
0.000106929 3.37001e-05 0.000575212
0.000126606 4.53246e-05 0.000757555
0.000111961 6.54996e-05 0.00107922
0.000107962 9.53659e-05 0.0013863
0.000104209 0.000126245 0.00169288
8.8604e-05 0.000156081 0.00200151
2.21115e-05 0.000187374 0.00230938
1.04321e-05 0.000246683 0.00262009
0.000148772 0.000277968 0.00276129
0.000143324 0.000269004 0.00286166
4.66403e-05 0.000246162 0.00301547
-5.03292e-05 0.000256821 0.00313886
-9.84592e-06 0.000302121 0.00323468
-2.34381e-06 0.000307304 0.00325213
5.64526e-06 0.000307164 0.00323979
4.68735e-05 0.000301887 0.00321066
-4.69061e-05 0.000256756 0.00309414
-0.000138968 0.000245789 0.00295548
-0.000141117 0.000267414 0.00279351
-2.36909e-06 0.00027575 0.00269242
-1.1048e-05 0.000244661 0.00255339
-7.37842e-05 0.000185622 0.00225257
-8.7181e-05 0.000153648 0.00195867
-8.97002e-05 0.000122561 0.00166596
-9.34117e-05 8.97672e-05 0.00137498
-0.000109354 5.71856e-05 0.00108081
-9.45789e-05 3.38974e-05 0.0007663
-3.68706e-05 2.16595e-05 0.000582809
-5.90473e-05 -2.37723e-06 0.000430597
-6.58751e-05 -1.49707e-05 0.000255747
-6.01898e-05 -1.24674e-05 0.000143815
-5.51917e-05 -6.48663e-06 6.48387e-05
0 0 0
5.57663e-05 0 0
6.15744e-05 -1.25208e-05 5.81535e-05
7.13253e-05 -2.66773e-05 0.000126243
8.04694e-05 -4.31574e-05 0.000215231
9.5885e-05 -6.01409e-05 0.000336887
0.000133691 -6.90769e-05 0.000424499
0.00015074 -8.54842e-05 0.000531494
0.000145935 -0.000123377 0.000747154
0.000142953 -0.000156732 0.000961949
0.000138053 -0.000188296 0.00117778
0.000123684 -0.000218235 0.00139528
8.48493e-05 -0.000242581 0.00161255
7.60579e-05 -0.000247902 0.00182735
0.000133624 -0.000249872 0.00192317
0.000122808 -0.000271194 0.00199436
5.89644e-05 -0.000313547 0.00210122
-4.04432e-06 -0.000326893 0.00218428
9.97956e-07 -0.000311542 0.00224562
-2.50609e-06 -0.000309009 0.00225753
-5.42267e-06 -0.000307484 0.00224839
7.42395e-07 -0.000308555 0.00222786
-5.9502e-05 -0.00032121 0.0021513
-0.000119563 -0.000306116 0.00205668
-0.00012705 -0.000263364 0.00194304
-6.73855e-05 -0.000242286 0.00187103
-7.3219e-05 -0.000240599 0.00177683
-0.000109126 -0.000236639 0.00156949
-0.000121702 -0.000214737 0.00136237
-0.000125814 -0.000187921 0.00115618
-0.000129006 -0.000159861 0.000951258
-0.000135186 -0.000130071 0.000745555
-0.000121409 -9.52466e-05 0.000536086
-8.74899e-05 -7.96104e-05 0.000430332
-7.46545e-05 -7.06307e-05 0.000341785
-6.67865e-05 -5.22543e-05 0.000217471
-5.78103e-05 -3.33297e-05 0.000127116
-5.2375e-05 -1.60239e-05 5.8422e-05
0 0 0
4.27774e-05 0 0
4.72075e-05 -1.90398e-05 4.30658e-05
5.5131e-05 -4.04011e-05 9.22669e-05
6.44568e-05 -6.58694e-05 0.000153604
7.95455e-05 -9.5995e-05 0.000232024
0.000102745 -0.000114759 0.000284026
0.000115111 -0.000139686 0.000347574
0.000115117 -0.000195807 0.000483155
0.000114035 -0.00025134 0.000621406
0.000110737 -0.000306108 0.000761388
0.000101808 -0.000359108 0.000902439
8.17127e-05 -0.000407161 0.00104266
7.39913e-05 -0.00044339 0.00117882
9.26186e-05 -0.00045979 0.00123896
8.17103e-05 -0.00048327 0.001285
4.62992e-05 -0.000525447 0.00135406
1.13914e-05 -0.000547237 0.00140647
5.70001e-06 -0.000548909 0.00144359
-1.78556e-06 -0.00054917 0.00145095
-8.79576e-06 -0.000547 0.00144494
-1.35607e-05 -0.000544687 0.0014319
-4.65834e-05 -0.000539369 0.00138479
-7.94675e-05 -0.000514962 0.00132463
-8.78593e-05 -0.000471552 0.00125078
-6.71602e-05 -0.00044809 0.00120404
-7.26435e-05 -0.00043217 0.00114492
-9.0811e-05 -0.000398027 0.00101366
-9.85572e-05 -0.000353106 0.000880018
-0.000101401 -0.000303868 0.00074624
-0.000102748 -0.000253083 0.000613277
-0.000103741 -0.000201323 0.000481012
-9.3477e-05 -0.000148265 0.000349973
-7.2903e-05 -0.000124187 0.000287687
-5.97566e-05 -0.000105496 0.000235516
-5.147e-05 -7.41748e-05 0.000155606
-4.4185e-05 -4.65091e-05 9.32562e-05
-4.00606e-05 -2.22671e-05 4.34532e-05
0 0 0
2.30343e-05 0 0
2.53459e-05 -2.21998e-05 2.27775e-05
2.95414e-05 -4.68873e-05 4.84386e-05
3.47079e-05 -7.60951e-05 7.96266e-05
4.27862e-05 -0.00011089 0.000118226
5.39076e-05 -0.000132491 0.000142957
6.03278e-05 -0.000159759 0.000173193
6.12096e-05 -0.000221005 0.000239119
6.10387e-05 -0.000283411 0.000307084
5.95222e-05 -0.000345802 0.000376214
5.5424e-05 -0.000406705 0.000445847
4.69081e-05 -0.00046341 0.000514798
4.23438e-05 -0.000511374 0.000581101
4.6604e-05 -0.000532947 0.000610248
4.01366e-05 -0.000556554 0.000632852
2.45949e-05 -0.000596978 0.000666803
9.25913e-06 -0.00062137 0.00069233
4.31054e-06 -0.000629909 0.000710076
-8.88086e-07 -0.00063151 0.00071362
-5.82976e-06 -0.000629127 0.000710643
-1.02777e-05 -0.000625281 0.000704292
-2.46754e-05 -0.000612786 0.000681601
-3.89689e-05 -0.000585461 0.0006522
-4.41096e-05 -0.000543461 0.000615772
-3.86475e-05 -0.000519772 0.000592774
-4.20277e-05 -0.000498743 0.000564119
-4.95942e-05 -0.000453123 0.000500221
-5.31123e-05 -0.000399774 0.000434493
-5.44221e-05 -0.000342818 0.000368419
-5.47521e-05 -0.000284528 0.000302736
-5.43832e-05 -0.000225927 0.000237761
-4.89982e-05 -0.000167734 0.000174214
-3.91922e-05 -0.000141342 0.000144696
-3.2121e-05 -0.000119859 0.00011998
-2.75166e-05 -8.39773e-05 8.07392e-05
-2.36728e-05 -5.27055e-05 4.904e-05
-2.15305e-05 -2.52807e-05 2.30302e-05
0 0 0
0 0 0
0 0 0
0 0 0
0 0 0
0 0 0
0 0 0
0 0 0
0 0 0
0 0 0
0 0 0
0 0 0
0 0 0
0 0 0
0 0 0
0 0 0
0 0 0
0 0 0
0 0 0
0 0 0
0 0 0
0 0 0
0 0 0
0 0 0
0 0 0
0 0 0
0 0 0
0 0 0
0 0 0
0 0 0
0 0 0
0 0 0
0 0 0
0 0 0
0 0 0
0 0 0
0 0 0
0 0 0
0 0 0
0 0 0
0 -8.33522e-05 0
0 -0.000177957 0
0 -0.000293858 0
0 -0.00043782 0
0 -0.00052955 0
0 -0.00064227 0
0 -0.000890597 0
0 -0.00114669 0
0 -0.00140626 0
0 -0.00166548 0
0 -0.00191798 0
0 -0.00215352 0
0 -0.0022576 0
0 -0.00234584 0
0 -0.00248407 0
0 -0.00258172 0
0 -0.00264061 0
0 -0.00265238 0
0 -0.00264193 0
0 -0.00262033 0
0 -0.00254425 0
0 -0.00243364 0
0 -0.002288 0
0 -0.00219923 0
0 -0.00209774 0
0 -0.00187293 0
0 -0.001635 0
0 -0.00139248 0
0 -0.00115001 0
0 -0.00090969 0
0 -0.00067415 0
0 -0.00056517 0
0 -0.000473889 0
0 -0.000325372 0
0 -0.000201154 0
0 -9.56189e-05 0
0 0 0
-8.79096e-05 0 0
-9.85138e-05 -7.29526e-05 -2.24566e-05
-0.000118621 -0.000158006 -4.81822e-05
-0.000145154 -0.000266966 -8.01444e-05
-0.000183453 -0.000409463 -0.000120374
-0.000224663 -0.000505331 -0.000146267
-0.000246481 -0.000624247 -0.000177957
-0.000253181 -0.000878133 -0.000247854
-0.000256016 -0.00113403 -0.000322015
-0.000255483 -0.00139082 -0.000400502
-0.000249065 -0.00164703 -0.000483661
-0.000232889 -0.00189717 -0.000571044
-0.000206452 -0.00213052 -0.000660611
-0.000175458 -0.00223439 -0.000699227
-0.000138415 -0.00232475 -0.000723068
-9.96416e-05 -0.00246785 -0.000750465
-6.27876e-05 -0.00256652 -0.000771521
-2.88443e-05 -0.00262287 -0.000789744
3.76946e-06 -0.00263403 -0.000792649
3.52132e-05 -0.00262363 -0.000787985
6.68676e-05 -0.00260268 -0.000780698
9.99077e-05 -0.00252915 -0.000754845
0.000133636 -0.0024178 -0.000727606
0.000164727 -0.00226797 -0.000695933
0.000189695 -0.00217736 -0.000671457
0.00021094 -0.00207607 -0.000634089
0.000223541 -0.00185324 -0.000549338
0.000227869 -0.00161763 -0.000467499
0.000227769 -0.00137824 -0.000389937
0.000225691 -0.00113886 -0.000316539
0.000221068 -0.000899274 -0.00024658
0.000203626 -0.000658768 -0.000179909
0.000168319 -0.000543699 -0.000149161
0.000134405 -0.000448111 -0.00012319
0.000110253 -0.000300472 -8.18785e-05
9.16743e-05 -0.000182531 -4.91105e-05
8.18125e-05 -8.58785e-05 -2.28469e-05
0 0 0
-0.000164936 0 0
-0.000186902 -5.13919e-05 -4.2429e-05
-0.000229554 -0.000115647 -9.17826e-05
-0.000287872 -0.000207895 -0.000154695
-0.000374044 -0.000345983 -0.000236249
-0.000460489 -0.000454802 -0.000290365
-0.000497188 -0.000593222 -0.000356926
-0.000504783 -0.000858478 -0.000501435
-0.000507883 -0.00110978 -0.000653526
-0.00050661 -0.00135709 -0.000814598
-0.000494455 -0.00160384 -0.000986606
-0.000462324 -0.00184583 -0.00116962
-0.000411282 -0.00207186 -0.00135946
-0.00035402 -0.00217385 -0.00144237
-0.000280636 -0.00226664 -0.00149481
-0.000199363 -0.00241717 -0.00155479
-0.000122197 -0.00251743 -0.00159854
-5.57004e-05 -0.00256968 -0.00163474
8.19075e-06 -0.00257999 -0.00164021
6.97839e-05 -0.00257002 -0.00163027
0.000131759 -0.00255027 -0.00161545
0.000201013 -0.00248129 -0.00156294
0.000271801 -0.00236927 -0.00150614
0.000333372 -0.00221361 -0.00143748
0.000379189 -0.00212115 -0.00138397
0.000420011 -0.00202155 -0.00130389
0.000444817 -0.00180517 -0.00112453
0.000452639 -0.00157718 -0.000953457
0.00045246 -0.00134709 -0.000793365
0.000450664 -0.00111753 -0.000643007
0.000447119 -0.000883537 -0.00049957
0.000419447 -0.000633143 -0.000361336
0.000345265 -0.000498874 -0.000296433
0.000267943 -0.00038984 -0.000241874