<?xml version="1.0"?>
<VTKFile type="RectilinearGrid" version="0.1" byte_order="LittleEndian">
<RectilinearGrid WholeExtent="0 37 0 14 0 34">
<Piece Extent="0 37 0 14 0 34">
<PointData>
<DataArray type="Float32" Name="MVP" NumberOfComponents="3" format="ascii">
0 0 0
0 0 0
0 0 0
0 0 0
0 0 0
0 0 0
0 0 0
0 0 0
0 0 0
0 0 0
0 0 0
0 0 0
0 0 0
0 0 0
0 0 0
0 0 0
0 0 0
0 0 0
0 0 0
0 0 0
0 0 0
0 0 0
0 0 0
0 0 0
0 0 0
0 0 0
0 0 0
0 0 0
0 0 0
0 0 0
0 0 0
0 0 0
0 0 0
0 0 0
0 0 0
0 0 0
0 0 0
0 0 0
0 0 0
0 0 5.41739e-05
0 0 0.000114477
0 0 0.000186403
0 0 0.000274012
0 0 0.000330036
0 0 0.000402111
0 0 0.000571008
0 0 0.000752303
0 0 0.000940139
0 0 0.00112731
0 0 0.001305
0 0 0.00146239
0 0 0.00153212
0 0 0.00159863
0 0 0.00170902
0 0 0.00178371
0 0 0.0018234
0 0 0.00183333
0 0 0.00183313
0 0 0.00182301
0 0 0.00178299
0 0 0.00170805
0 0 0.00159752
0 0 0.00153099
0 0 0.00146133
0 0 0.00130421
0 0 0.00112688
0 0 0.000940105
0 0 0.000752639
0 0 0.00057162
0 0 0.000402863
0 0 0.000330782
0 0 0.000274685
0 0 0.000186878
0 0 0.00011477
0 0 5.43119e-05
0 0 0
0 0 0
0 0 0.000101612
0 0 0.000215607
0 0 0.00035318
0 0 0.000522296
0 0 0.000630647
0 0 0.000769616
0 0 0.00109741
0 0 0.00144988
0 0 0.00181518
0 0 0.00217854
0 0 0.00252123
0 0 0.0028181
0 0 0.00294977
0 0 0.00308318
0 0 0.00330803
0 0 0.00345391
0 0 0.00352226
0 0 0.00353982
0 0 0.00353941
0 0 0.00352146
0 0 0.00345244
0 0 0.00330604
0 0 0.00308089
0 0 0.00294746
0 0 0.00281593
0 0 0.00251962
0 0 0.00217766
0 0 0.00181512
0 0 0.0014506
0 0 0.00109869
0 0 0.00077115
0 0 0.000632136
0 0 0.000523613
0 0 0.000354081
0 0 0.00021615
0 0 0.000101865
0 0 0
0 0 0
0 0 0.000135189
0 0 0.000288947
0 0 0.000478536
0 0 0.00071577
0 0 0.000867488
0 0 0.00105515
0 0 0.0015065
0 0 0.00199581
0 0 0.00250439
0 0 0.00300933
0 0 0.00348038
0 0 0.00386826
0 0 0.00403955
0 0 0.00423735
0 0 0.00457928
0 0 0.00478399
0 0 0.00485346
0 0 0.00487366
0 0 0.00487299
0 0 0.00485216
0 0 0.00478161
0 0 0.00457609
0 0 0.00423367
0 0 0.00403584
0 0 0.00386477
0 0 0.00347777
0 0 0.00300788
0 0 0.00250425
0 0 0.00199691
0 0 0.00150852
0 0 0.00105749
0 0 0.000869673
0 0 0.000717625
0 0 0.000479738
0 0 0.000289647
0 0 0.000135508
0 0 0
0 0 0
0 0 0.000147259
0 0 0.00031812
0 0 0.000536203
0 0 0.000818949
0 0 0.00100084
0 0 0.00117581
0 0 0.00163938
0 0 0.00216403
0 0 0.002718
0 0 0.00326953
0 0 0.00377913
0 0 0.00415358
0 0 0.00431168
0 0 0.00455548
0 0 0.0049875
0 0 0.00521391
0 0 0.00523469
0 0 0.00525181
0 0 0.00525077
0 0 0.00523267
0 0 0.0052102
0 0 0.00498255
0 0 0.00454983
0 0 0.00430598
0 0 0.0041482
0 0 0.00377497
0 0 0.00326701
0 0 0.00271738
0 0 0.00216528
0 0 0.00164202
0 0 0.00117885
0 0 0.00100352
0 0 0.000821056
0 0 0.00053746
0 0 0.000318818
0 0 0.00014757
0 0 0
0 0 0
0 0 0.000134898
0 0 0.000293587
0 0 0.000502641
0 0 0.000792032
0 0 0.0010173
0 0 0.00105286
0 0 0.00131819
0 0 0.00170376
0 0 0.00213219
0 0 0.00256665
0 0 0.00298433
0 0 0.00336505
0 0 0.00353423
0 0 0.00368735
0 0 0.00394124
0 0 0.00412077
0 0 0.00422652
0 0 0.00425248
0 0 0.00425108
0 0 0.00422378
0 0 0.00411565
0 0 0.00393443
0 0 0.00367979
0 0 0.00352669
0 0 0.00335778
0 0 0.00297831
0 0 0.00256259
0 0 0.00213047
0 0 0.00170437
0 0 0.00132067
0 0 0.00105601
0 0 0.00102008
0 0 0.000793986
0 0 0.000503743
0 0 0.000294188
0 0 0.000135164
0 0 0
0 0 0
0 0 9.97675e-05
0 0 0.000218531
0 0 0.000379976
0 0 0.000622495
0 0 0.000862393
0 0 0.000865986
0 0 0.00104084
0 0 0.00132897
0 0 0.0016567
0 0 0.00199103
0 0 0.00231288
0 0 0.00260629
0 0 0.00273677
0 0 0.00285497
0 0 0.00305129
0 0 0.00319032
0 0 0.00327221
0 0 0.00329224
0 0 0.00329085
0 0 0.00326949
0 0 0.00318523
0 0 0.00304452
0 0 0.00284745
0 0 0.00272925
0 0 0.00259902
0 0 0.00230679
0 0 0.00198678
0 0 0.00165464
0 0 0.00132908
0 0 0.00104263
0 0 0.000868289
0 0 0.000864348
0 0 0.000623828
0 0 0.000380738
0 0 0.000218954
0 0 9.99571e-05
0 0 0
0 0 0
0 0 -1.04516e-09
0 0 -3.71025e-09
0 0 -1.1192e-08
0 0 -3.14638e-08
0 0 -6.03747e-08
0 0 -6.26173e-08
0 0 -5.76193e-08
0 0 -4.95625e-08
0 0 -3.98654e-08
0 0 -2.92273e-08
0 0 -1.84119e-08
0 0 -8.09767e-09
0 0 -3.23019e-09
0 0 1.39985e-09
0 0 9.81564e-09
0 0 1.68274e-08
0 0 2.24629e-08
0 0 2.48666e-08
0 0 2.89025e-08
0 0 3.05889e-08
0 0 3.33703e-08
0 0 3.56466e-08
0 0 3.76113e-08
0 0 3.84489e-08
0 0 3.9111e-08
0 0 4.01966e-08
0 0 4.13777e-08
0 0 4.27685e-08
0 0 4.43896e-08
0 0 4.6104e-08
0 0 4.74584e-08
0 0 4.7639e-08
0 0 2.62762e-08
0 0 1.00812e-08
0 0 3.66421e-09
0 0 1.14755e-09
0 0 0
0 0 0
0 0 -9.97697e-05
0 0 -0.000218538
0 0 -0.000379999
0 0 -0.000622559
0 0 -0.000862513
0 0 -0.000866111
0 0 -0.00104095
0 0 -0.00132907
0 0 -0.00165677
0 0 -0.00199109
0 0 -0.00231292
0 0 -0.00260631
0 0 -0.00273678
0 0 -0.00285497
0 0 -0.00305127
0 0 -0.00319028
0 0 -0.00327216
0 0 -0.00329219
0 0 -0.00329079
0 0 -0.00326943
0 0 -0.00318516
0 0 -0.00304445
0 0 -0.00284738
0 0 -0.00272918
0 0 -0.00259894
0 0 -0.00230671
0 0 -0.0019867
0 0 -0.00165455
0 0 -0.00132899
0 0 -0.00104254
0 0 -0.000868192
0 0 -0.000864249
0 0 -0.000623772
0 0 -0.000380718
0 0 -0.000218947
0 0 -9.99547e-05
0 0 0
0 0 0
0 0 -0.0001349
0 0 -0.000293594
0 0 -0.000502663
0 0 -0.000792094
0 0 -0.00101742
0 0 -0.00105298
0 0 -0.0013183
0 0 -0.00170385
0 0 -0.00213227
0 0 -0.00256671
0 0 -0.00298437
0 0 -0.00336506
0 0 -0.00353423
0 0 -0.00368735
0 0 -0.00394122
0 0 -0.00412074
0 0 -0.00422648
0 0 -0.00425243
0 0 -0.00425102
0 0 -0.00422372
0 0 -0.00411558
0 0 -0.00393436
0 0 -0.00367972
0 0 -0.00352661
0 0 -0.0033577
0 0 -0.00297824
0 0 -0.00256251
0 0 -0.00213038
0 0 -0.00170428
0 0 -0.00132057
0 0 -0.00105591
0 0 -0.00101998
0 0 -0.000793931
0 0 -0.000503723
0 0 -0.000294181
0 0 -0.000135162
0 0 0
0 0 0
0 0 -0.000147261
0 0 -0.000318126
0 0 -0.000536219
0 0 -0.000818989
0 0 -0.0010009
0 0 -0.00117587
0 0 -0.00163944
0 0 -0.00216408
0 0 -0.00271803
0 0 -0.00326956
0 0 -0.00377915
0 0 -0.00415359
0 0 -0.00431168
0 0 -0.00455548
0 0 -0.00498749
0 0 -0.00521389
0 0 -0.00523467
0 0 -0.00525179
0 0 -0.00525074
0 0 -0.00523263
0 0 -0.00521016
0 0 -0.00498251
0 0 -0.00454979
0 0 -0.00430593
0 0 -0.00414816
0 0 -0.00377493
0 0 -0.00326697
0 0 -0.00271734
0 0 -0.00216523
0 0 -0.00164197
0 0 -0.00117879
0 0 -0.00100347
0 0 -0.00082102
0 0 -0.000537445
0 0 -0.000318813
0 0 -0.000147568
0 0 0
0 0 0
0 0 -0.00013519
0 0 -0.000288949
0 0 -0.000478543
0 0 -0.000715785
0 0 -0.000867509
0 0 -0.00105518
0 0 -0.00150652
0 0 -0.00199582
0 0 -0.0025044
0 0 -0.00300934
0 0 -0.00348038
0 0 -0.00386826
0 0 -0.00403955
0 0 -0.00423735
0 0 -0.00457928
0 0 -0.00478398
0 0 -0.00485345
0 0 -0.00487365
0 0 -0.00487298
0 0 -0.00485215
0 0 -0.0047816
0 0 -0.00457607
0 0 -0.00423365
0 0 -0.00403583
0 0 -0.00386476
0 0 -0.00347776
0 0 -0.00300787
0 0 -0.00250423
0 0 -0.0019969
0 0 -0.0015085
0 0 -0.00105747
0 0 -0.000869653
0 0 -0.00071761
0 0 -0.000479731
0 0 -0.000289644
0 0 -0.000135507
0 0 0
0 0 0
0 0 -0.000101612
0 0 -0.000215607
0 0 -0.000353183
0 0 -0.000522302
0 0 -0.000630654
0 0 -0.000769624
0 0 -0.00109742
0 0 -0.00144989
0 0 -0.00181518
0 0 -0.00217854
0 0 -0.00252123
0 0 -0.0028181
0 0 -0.00294977
0 0 -0.00308318
0 0 -0.00330803
0 0 -0.00345391
0 0 -0.00352225
0 0 -0.00353981
0 0 -0.0035394
0 0 -0.00352145
0 0 -0.00345243
0 0 -0.00330604
0 0 -0.00308088
0 0 -0.00294745
0 0 -0.00281593
0 0 -0.00251961
0 0 -0.00217765
0 0 -0.00181512
0 0 -0.00145059
0 0 -0.00109868
0 0 -0.000771143
0 0 -0.000632129
0 0 -0.000523608
0 0 -0.000354078
0 0 -0.000216149
0 0 -0.000101864
0 0 0
0 0 0
0 0 -5.41739e-05
0 0 -0.000114477
0 0 -0.000186404
0 0 -0.000274013
0 0 -0.000330038
0 0 -0.000402113
0 0 -0.00057101
0 0 -0.000752305
0 0 -0.00094014
0 0 -0.00112731
0 0 -0.001305
0 0 -0.00146239
0 0 -0.00153212
0 0 -0.00159863
0 0 -0.00170902
0 0 -0.00178371
0 0 -0.00182339
0 0 -0.00183332
0 0 -0.00183313
0 0 -0.00182301
0 0 -0.00178299
0 0 -0.00170805
0 0 -0.00159751
0 0 -0.00153099
0 0 -0.00146133
0 0 -0.00130421
0 0 -0.00112688
0 0 -0.000940103
0 0 -0.000752637
0 0 -0.000571618
0 0 -0.000402861
0 0 -0.00033078
0 0 -0.000274683
0 0 -0.000186877
0 0 -0.000114769
0 0 -5.43118e-05
0 0 0
0 0 0
0 0 0
0 0 0
0 0 0
0 0 0
0 0 0
0 0 0
0 0 0
0 0 0
0 0 0
0 0 0
0 0 0
0 0 0
0 0 0
0 0 0
0 0 0
0 0 0
0 0 0
0 0 0
0 0 0
0 0 0
0 0 0
0 0 0
0 0 0
0 0 0
0 0 0
0 0 0
0 0 0
0 0 0
0 0 0
0 0 0
0 0 0
0 0 0
0 0 0
0 0 0
0 0 0
0 0 0
0 0 0
0 0 0
0 5.40874e-05 0
0 0.000114298 0
0 0.000186121 0
0 0.000273616 0
0 0.000329584 0
0 0.000401604 0
0 0.000570401 0
0 0.000751619 0
0 0.0009394 0
0 0.00112653 0
0 0.00130419 0
0 0.00146156 0
0 0.00153129 0
0 0.0015978 0
0 0.00170819 0
0 0.00178289 0
0 0.00182261 0
0 0.00183256 0
0 0.0018324 0
0 0.00182231 0
0 0.00178235 0
0 0.00170747 0
0 0.00159698 0
0 0.00153048 0
0 0.00146084 0
0 0.00130376 0
0 0.00112647 0
0 0.000939753 0
0 0.000752366 0
0 0.000571454 0
0 0.000402822 0
0 0.000330797 0
0 0.000274748 0
0 0.000187001 0
0 0.000114892 0
0 5.43858e-05 0
0 0 0
5.41348e-05 0 0
6.02574e-05 4.73576e-05 5.49393e-05
7.18703e-05 0.000100961 0.000116649
8.75418e-05 0.000166505 0.000191376
0.000111982 0.00024789 0.000283968
0.000144087 0.000300152 0.000344878
0.000168845 0.000366984 0.000424619
0.000181269 0.000525769 0.000611604
0.000187835 0.000696868 0.000813036
0.000187195 0.000874279 0.00102303
0.000177726 0.00105043 0.00123517
0.000157443 0.00121541 0.00144246
0.000139517 0.00135488 0.00163732
0.000133098 0.00141681 0.00172222
0.000110464 0.00148371 0.00178958
7.4776e-05 0.00159817 0.00189267
3.97865e-05 0.00166938 0.00197088
1.9966e-05 0.00169807 0.00202636
-8.78129e-08 0.00170571 0.00203989
-2.01188e-05 0.00170555 0.00203969
-3.98944e-05 0.00169775 0.00202596
-7.48143e-05 0.0016688 0.00197014
-0.000110408 0.0015974 0.00189165
-0.000132913 0.00148283 0.00178841
-0.000139177 0.00141594 0.00172103
-0.000156972 0.0013541 0.0016362
-0.000177164 0.00121494 0.00144162
-0.000186585 0.00105034 0.00123471
-0.000187239 0.000874632 0.00102301
-0.000180755 0.000697647 0.000813435
-0.000168468 0.00052688 0.000612314
-0.000143878 0.000368253 0.000425487
-0.000111922 0.000301393 0.000345728
-8.7563e-05 0.00024903 0.00028472
-7.19144e-05 0.000167376 0.00019189
-6.03046e-05 0.000101544 0.000116961
-5.41806e-05 4.76487e-05 5.50847e-05
0 0 0
0.000101539 0 0
0.000113908 3.35115e-05 0.000103473
0.000137462 7.31974e-05 0.000220914
0.000168977 0.000125111 0.000365632
0.000216556 0.000193086 0.000548533
0.000277801 0.000236369 0.000671209
0.000327682 0.000284981 0.000832748
0.000352419 0.000408401 0.00121416
0.000365301 0.000545157 0.00162486
0.000363405 0.0006884 0.00205185
0.000342777 0.000829965 0.00248241
0.000296979 0.000958303 0.00290302
0.000263463 0.0010493 0.00329917
0.000266954 0.00108892 0.00347225
0.000224998 0.0011533 0.00360974
0.000146047 0.00127039 0.00382069
6.85343e-05 0.00132923 0.00398033
3.53145e-05 0.00133038 0.00409313
-2.03054e-07 0.00133305 0.00412049
-3.56721e-05 0.00133285 0.00412008
-6.87948e-05 0.00132999 0.00409233
-0.00014616 0.00132851 0.00397885
-0.000224916 0.00126944 0.00381867
-0.000266608 0.00115223 0.00360742
-0.000262794 0.00108785 0.00346993
-0.000296043 0.00104832 0.00329698
-0.000341654 0.000957654 0.00290139
-0.000362177 0.000829737 0.00248158
-0.000364096 0.000688666 0.00205194
-0.000351389 0.000545923 0.00162581
-0.000326956 0.00040957 0.00121575
-0.000277451 0.000286317 0.000834607
-0.000216496 0.000237631 0.000672958
-0.000169051 0.000194206 0.00055003
-0.000137562 0.000125941 0.000366616
-0.000114004 7.37458e-05 0.000221494
-0.000101627 3.37846e-05 0.00010374
0 0 0
0.000135096 0 0
0.000153642 1.20264e-05 0.000138894
0.000189428 2.90754e-05 0.000299454
0.000237014 5.74804e-05 0.000503801
0.000303192 0.000102824 0.00077263
0.000375097 0.000132866 0.000961021
0.000451168 0.000120022 0.00120935
0.000489234 0.000132073 0.00180681
0.000508605 0.000167368 0.00244756
0.000505035 0.000212739 0.00310842
0.000471185 0.000259331 0.00377123
0.000388043 0.000297877 0.00441759
0.000342779 0.000284443 0.00502907
0.000395788 0.000271237 0.0052978
0.000342146 0.000317243 0.0055109
0.000204939 0.000407331 0.00584003
6.97249e-05 0.000429053 0.00608901
4.06768e-05 0.000380402 0.0062648
-3.89847e-07 0.000377343 0.00630678
-4.13757e-05 0.000377025 0.00630618
-7.02567e-05 0.000379783 0.00626363
-0.000205222 0.000427928 0.00608684
-0.000342111 0.000405854 0.0058371
-0.000395341 0.000315595 0.00550759
-0.000341816 0.000269583 0.00529451
-0.000386666 0.000282883 0.00502597
-0.000469512 0.00029665 0.00441533
-0.000503177 0.000258568 0.00377022
-0.000506763 0.000212557 0.00310887
-0.00048767 0.000167818 0.00244942
-0.000450148 0.000133094 0.0018097
-0.000374755 0.00012131 0.00121251
-0.000303266 0.000134053 0.000963744
-0.0002372 0.000103816 0.000774797
-0.000189599 5.82022e-05 0.000505121
-0.000153781 2.9556e-05 0.000300198
-0.000135217 1.22683e-05 0.000139229
0 0 0
0.000147169 0 0
0.000170743 -2.47445e-05 0.000154241
0.000217903 -4.91177e-05 0.000337279
0.000282464 -6.72339e-05 0.000582226
0.000363416 -5.41032e-05 0.00092922
0.000349557 3.24515e-05 0.00119993
0.000463334 -0.00024668 0.0015429
0.000524621 -0.000643334 0.00241917
0.00055406 -0.000921514 0.00334126
0.000551712 -0.00117254 0.00427343
0.000509816 -0.00140667 0.00519688
0.000374691 -0.0015905 0.00609093
0.00031644 -0.00157796 0.0069412
0.000487865 -0.0015558 0.00731939
0.000432286 -0.00173716 0.00761788
0.000226688 -0.0020934 0.00808765
2.10736e-05 -0.00218715 0.00844345
3.45407e-05 -0.00201718 0.00869497
-7.45158e-07 -0.00199948 0.00875272
-3.59089e-05 -0.00200014 0.008752
-2.21731e-05 -0.00201849 0.00869356
-0.000227364 -0.00218976 0.0084408
-0.000432439 -0.00209683 0.00808412
-0.000487427 -0.00174063 0.00761402
-0.000315273 -0.00155913 0.00731563
-0.000372948 -0.0015814 0.00693771
-0.000507631 -0.00159388 0.00608854
-0.000549221 -0.00140946 0.00519619
-0.000551544 -0.00117451 0.00427478
-0.000522469 -0.000922544 0.00334469
-0.000462067 -0.000643342 0.00242425
-0.000349433 -0.000245827 0.00154823
-0.000363856 3.35537e-05 0.00120359
-0.000282813 -5.34651e-05 0.000931707
-0.000218137 -6.67446e-05 0.000583577
-0.000170906 -4.87545e-05 0.000338003
-0.0001473 -2.45504e-05 0.00015456
0 0 0
0.000134821 0 0
0.000158586 -7.02696e-05 0.000142679
0.000208892 -0.000150134 0.000314746
0.000289123 -0.000245388 0.000553576
0.000450135 -0.000339261 0.000918918
7.06111e-05 -0.000310161 0.00127763
0.000265117 -0.000374714 0.00165268
0.000385609 -0.000555798 0.00280361
0.000428617 -0.000750597 0.00394583
0.000434715 -0.000951954 0.00506894
0.000417964 -0.00115217 0.00616722
0.000381015 -0.00134381 0.00721626
0.000338651 -0.0015184 0.00817348
0.000306545 -0.0015958 0.00859656
0.000254188 -0.00166565 0.00897654
0.000179817 -0.0017808 0.00959677
0.000106035 -0.00186178 0.0100279
5.22058e-05 -0.00190946 0.0102795
-1.13144e-06 -0.00192129 0.0103417
-5.43306e-05 -0.00192121 0.010341
-0.000107889 -0.0019093 0.0102781
-0.000180988 -0.00186148 0.0100253
-0.000254439 -0.00178041 0.00959344
-0.00030603 -0.00166523 0.00897296
-0.000337635 -0.00159541 0.00859313
-0.000379289 -0.00151806 0.00817039
-0.000415519 -0.00134364 0.00721442
-0.000431851 -0.00115229 0.00616728
-0.000425676 -0.000952422 0.00507131
-0.000383024 -0.00075143 0.00395073
-0.000263555 -0.000556923 0.00281095
-7.04272e-05 -0.000375827 0.00166104
-0.000451143 -0.000310673 0.00128121
-0.00028954 -0.000339406 0.000920954
-0.000209117 -0.000245188 0.000554663
-0.000158732 -0.000149889 0.00031534
-0.000134937 -7.01211e-05 0.000142944
0 0 0
9.97109e-05 0 0
0.000118686 -9.97624e-05 0.00010527
0.000161321 -0.000218521 0.00023327
0.000242313 -0.000379983 0.00041322
0.000479521 -0.000622641 0.00068951
6.90902e-06 -0.000862801 0.000945623
0.00017475 -0.000867199 0.000577155
0.000288223 -0.00104212 0.000713276
0.000327918 -0.00133012 0.000977347
0.000334578 -0.00165774 0.00124586
0.000322113 -0.001992 0.00150966
0.000293678 -0.0023138 0.00176233
0.000261209 -0.00260719 0.00199334
0.00023664 -0.00273766 0.00209549
0.000196539 -0.00285585 0.00218721
0.000139223 -0.00305214 0.00233658
8.20505e-05 -0.00319114 0.00243954
4.02081e-05 -0.00327299 0.00249845
-1.28068e-06 -0.003293 0.00251235
-4.26292e-05 -0.00329154 0.00250966
-8.41967e-05 -0.00327015 0.0024932
-0.000140675 -0.00318582 0.00242969
-0.00019706 -0.00304505 0.00232344
-0.000236398 -0.00284795 0.00217255
-0.000260469 -0.00272975 0.0020808
-0.000292243 -0.00259953 0.0019791
-0.000319994 -0.00230735 0.00175024
-0.000332085 -0.00198744 0.00150085
-0.000325406 -0.00165542 0.00124088
-0.000286145 -0.00133001 0.000976239
-0.000173797 -0.00104361 0.000715418
-7.17999e-06 -0.000868777 0.000580161
-0.000480369 -0.000863457 0.000944407
-0.000242579 -0.000622729 0.000689914
-0.00016146 -0.000379768 0.000413782
-0.000118783 -0.00021829 0.000233648
-9.97915e-05 -9.9626e-05 0.000105449
0 0 0
-8.15804e-10 0 0
-2.4188e-09 -9.97625e-05 1.10916e-09
-7.19701e-09 -0.000218521 2.64162e-09
-1.99199e-08 -0.000379983 5.60801e-09
-5.73786e-08 -0.000622643 1.2918e-08
-3.96851e-09 -0.000862801 2.37511e-08
5.63752e-09 -0.000867198 -1.75101e-08
8.85849e-09 -0.00104212 -3.83987e-09
1.06325e-08 -0.00133012 -1.80691e-09
1.16654e-08 -0.00165774 -1.14078e-09
1.18888e-08 -0.001992 -5.60033e-10
1.13898e-08 -0.0023138 -2.8656e-11
1.07816e-08 -0.00260719 4.14169e-10
1.02779e-08 -0.00273765 5.8635e-10
9.38252e-09 -0.00285584 7.33068e-10
7.8919e-09 -0.00305214 9.35556e-10
6.41634e-09 -0.00319114 1.03168e-09
5.5085e-09 -0.00327299 1.04241e-09
4.65736e-09 -0.003293 1.02215e-09
3.91665e-09 -0.00329154 9.40565e-10
3.24969e-09 -0.00327015 8.88425e-10
2.65234e-09 -0.00318582 7.70702e-10
2.25844e-09 -0.00304505 6.30945e-10
1.91596e-09 -0.00284795 4.7241e-10
1.53378e-09 -0.00272975 3.8757e-10
1.2511e-09 -0.00259953 3.28019e-10
1.29888e-09 -0.00230735 2.10548e-10
1.47117e-09 -0.00198744 9.70887e-11
1.67349e-09 -0.00165542 -9.02715e-13
1.74641e-09 -0.00133001 -8.27621e-11
1.37345e-09 -0.00104361 -2.02321e-10
3.75786e-10 -0.000868776 -2.29093e-09
-4.27091e-08 -0.000863453 -1.41453e-08
-1.61833e-08 -0.000622726 -7.57145e-09
-6.40802e-09 -0.000379767 -3.26017e-09
-2.51041e-09 -0.00021829 -1.57924e-09
-1.14195e-09 -9.96259e-05 -6.89289e-10
0 0 0
-9.97126e-05 0 0
-0.000118691 -7.02694e-05 -0.000105267
-0.000161336 -0.000150133 -0.000233265
-0.000242354 -0.000245385 -0.000413209
-0.000479632 -0.000339255 -0.000689484
-6.91589e-06 -0.000310162 -0.000945575
-0.00017474 -0.000374705 -0.000577198
-0.000288206 -0.00055579 -0.000713298
-0.000327897 -0.000750591 -0.000977362
-0.000334555 -0.000951949 -0.00124586
-0.00032209 -0.00115217 -0.00150967
-0.000293656 -0.00134381 -0.00176233
-0.000261188 -0.00151841 -0.00199333
-0.00023662 -0.0015958 -0.00209548
-0.00019652 -0.00166565 -0.0021872
-0.000139208 -0.0017808 -0.00233657
-8.20383e-05 -0.00186178 -0.00243953
-4.01977e-05 -0.00190946 -0.00249844
1.28946e-06 -0.00192129 -0.00251234
4.26365e-05 -0.00192121 -0.00250965
8.42028e-05 -0.0019093 -0.00249319
0.00014068 -0.00186148 -0.00242968
0.000197065 -0.00178041 -0.00232343
0.000236401 -0.00166524 -0.00217255
0.000260472 -0.00159541 -0.0020808
0.000292245 -0.00151806 -0.0019791
0.000319997 -0.00134365 -0.00175024
0.000332088 -0.00115229 -0.00150085
0.000325409 -0.000952424 -0.00124089
0.000286149 -0.000751431 -0.000976243
0.000173801 -0.000556923 -0.000715423
7.18477e-06 -0.000375823 -0.00058017
0.000480282 -0.000310656 -0.000944437
0.000242545 -0.000339407 -0.00068993
0.000161447 -0.00024519 -0.000413788
0.000118778 -0.00014989 -0.000233651
9.97891e-05 -7.01214e-05 -0.000105451
0 0 0
-0.000134823 0 0
-0.000158591 -2.47435e-05 -0.000142677
-0.000208906 -4.91143e-05 -0.000314741
-0.000289162 -6.72222e-05 -0.000553565
-0.000450253 -5.40599e-05 -0.000918894
-7.06088e-05 3.25699e-05 -0.00127759
-0.000265108 -0.000246568 -0.00165264
-0.000385593 -0.000643226 -0.00280357
-0.000428598 -0.00092142 -0.0039458
-0.000434693 -0.00117246 -0.00506891
-0.000417942 -0.00140661 -0.0061672
-0.000380995 -0.00159046 -0.00721625
-0.000338632 -0.00157794 -0.00817347
-0.000306526 -0.00155579 -0.00859656
-0.000254171 -0.00173716 -0.00897653
-0.000179803 -0.00209342 -0.00959677
-0.000106024 -0.00218718 -0.0100279
-5.21961e-05 -0.00201722 -0.0102795
1.13962e-06 -0.00199952 -0.0103417
5.43375e-05 -0.00200019 -0.010341
0.000107895 -0.00201854 -0.0102782
0.000180993 -0.00218982 -0.0100254
0.000254443 -0.00209689 -0.00959346
0.000306035 -0.0017407 -0.00897298
0.000337637 -0.0015592 -0.00859315
0.000379291 -0.00158146 -0.00817041
0.000415521 -0.00159395 -0.00721445
0.000431854 -0.00140954 -0.0061673
0.00042568 -0.00117459 -0.00507134
0.000383028 -0.000922626 -0.00395076
0.000263562 -0.000643427 -0.00281098
7.04445e-05 -0.000245915 -0.00166107
0.000451038 3.34486e-05 -0.00128124
0.000289505 -5.35027e-05 -0.00092097
0.000209104 -6.67551e-05 -0.000554669
0.000158727 -4.87577e-05 -0.000315343
0.000134935 -2.45513e-05 -0.000142945
0 0 0
-0.000147171 0 0
-0.000170747 1.20272e-05 -0.000154239
-0.000217912 2.90783e-05 -0.000337275
-0.000282488 5.7489e-05 -0.000582217
-0.000363459 0.000102848 -0.000929203
-0.000349561 0.000132905 -0.00119991
-0.000463327 0.000120063 -0.00154288
-0.000524612 0.000132109 -0.00241915
-0.00055405 0.0001674 -0.00334124
-0.0005517 0.000212765 -0.00427341
-0.000509804 0.000259351 -0.00519686
-0.00037468 0.000297889 -0.00609092
-0.00031643 0.00028445 -0.00694119
-0.000487854 0.00027124 -0.00731939
-0.000432277 0.000317243 -0.00761787
-0.00022668 0.000407326 -0.00808765
-2.10666e-05 0.000429043 -0.00844345
-3.45352e-05 0.000380387 -0.00869497
7.49489e-07 0.000377327 -0.00875272
3.59121e-05 0.000377006 -0.008752
2.21744e-05 0.000379763 -0.00869357
0.000227367 0.000427906 -0.00844081
0.000432444 0.000405831 -0.00808413
0.000487432 0.000315569 -0.00761403
0.000315272 0.000269556 -0.00731565
0.000372947 0.000282856 -0.00693772
0.000507632 0.000296623 -0.00608855
0.000549223 0.000258541 -0.0051962
0.000551546 0.000212529 -0.0042748
0.000522472 0.000167789 -0.0033447
0.000462072 0.000133063 -0.00242426
0.000349433 0.000121276 -0.00154825
0.000363819 0.000134018 -0.0012036
0.000282792 0.000103795 -0.000931718
0.000218128 5.81942e-05 -0.000583582
0.000170902 2.95531e-05 -0.000338006
0.000147298 1.22674e-05 -0.000154561
0 0 0
-0.000135097 0 0
-0.000153643 3.35119e-05 -0.000138893
-0.000189432 7.31989e-05 -0.000299451
-0.000237023 0.000125115 -0.000503796
-0.000303204 0.000193095 -0.000772622
-0.000375099 0.000236383 -0.000961011
-0.000451165 0.000284996 -0.00120934
-0.000489231 0.000408415 -0.0018068
-0.000508601 0.000545168 -0.00244755
-0.00050503 0.000688409 -0.00310841
-0.000471181 0.000829971 -0.00377122
-0.000388039 0.000958307 -0.00441758
-0.000342775 0.0010493 -0.00502906
-0.000395784 0.00108892 -0.00529779
-0.000342143 0.0011533 -0.00551089
-0.000204937 0.00127039 -0.00584003
-6.97223e-05 0.00132923 -0.00608901
-4.06749e-05 0.00133038 -0.0062648
3.91161e-07 0.00133305 -0.00630678
4.13764e-05 0.00133284 -0.00630618
7.02567e-05 0.00132998 -0.00626364
0.000205223 0.00132851 -0.00608684
0.000342113 0.00126943 -0.00583711
0.000395343 0.00115222 -0.00550759
0.000341815 0.00108784 -0.00529451
0.000386665 0.00104831 -0.00502598
0.000469512 0.000957644 -0.00441534
0.000503177 0.000829727 -0.00377023
0.000506764 0.000688656 -0.00310887
0.000487672 0.000545912 -0.00244942
0.00045015 0.000409558 -0.0018097
0.000374754 0.000286304 -0.00121252
0.000303256 0.000237619 -0.000963751
0.000237192 0.000194196 -0.000774802
0.000189595 0.000125937 -0.000505124
0.000153779 7.37442e-05 -0.0003002
0.000135216 3.3784e-05 -0.00013923
0 0 0
-0.000101539 0 0
-0.000113909 4.73577e-05 -0.000103473
-0.000137463 0.000100962 -0.000220912
-0.000168979 0.000166507 -0.00036563
-0.000216559 0.000247894 -0.000548529
-0.000277802 0.000300156 -0.000671204
-0.000327681 0.000366989 -0.000832744
-0.000352418 0.000525774 -0.00121416
-0.0003653 0.000696872 -0.00162486
-0.000363404 0.000874282 -0.00205185
-0.000342775 0.00105043 -0.00248241
-0.000296978 0.00121541 -0.00290302
-0.000263461 0.00135488 -0.00329917
-0.000266952 0.00141681 -0.00347225
-0.000224997 0.00148371 -0.00360973
-0.000146046 0.00159817 -0.00382068
-6.85335e-05 0.00166937 -0.00398033
-3.53141e-05 0.00169806 -0.00409313
2.03302e-07 0.00170571 -0.00412049
3.56721e-05 0.00170554 -0.00412008
6.87945e-05 0.00169774 -0.00409233
0.00014616 0.00166879 -0.00397885
0.000224917 0.00159739 -0.00381867
0.000266608 0.00148282 -0.00360743
0.000262794 0.00141594 -0.00346994
0.000296043 0.00135409 -0.00329699
0.000341654 0.00121493 -0.00290139
0.000362177 0.00105034 -0.00248158
0.000364096 0.000874628 -0.00205194
0.00035139 0.000697643 -0.00162582
0.000326957 0.000526875 -0.00121576
0.00027745 0.000368248 -0.00083461
0.000216493 0.000301389 -0.000672961
0.000169049 0.000249027 -0.000550032
0.000137561 0.000167374 -0.000366618
0.000114003 0.000101543 -0.000221495
0.000101627 4.76485e-05 -0.000103741
0 0 0
-5.41347e-05 0 0
-6.02574e-05 5.40873e-05 -5.49389e-05
-7.18707e-05 0.000114298 -0.000116648
-8.75426e-05 0.000186122 -0.000191374
-0.000111983 0.000273618 -0.000283967
-0.000144087 0.000329586 -0.000344876
-0.000168845 0.000401605 -0.000424617
-0.000181268 0.000570402 -0.000611602
-0.000187835 0.00075162 -0.000813034
-0.000187194 0.0009394 -0.00102302
-0.000177725 0.00112653 -0.00123517
-0.000157443 0.00130419 -0.00144246
-0.000139517 0.00146156 -0.00163731
-0.000133098 0.00153128 -0.00172222
-0.000110464 0.0015978 -0.00178958
-7.47758e-05 0.00170819 -0.00189266
-3.97864e-05 0.00178289 -0.00197088
-1.99659e-05 0.00182261 -0.00202636
8.7791e-08 0.00183256 -0.00203989
2.01187e-05 0.0018324 -0.00203969
3.98942e-05 0.00182231 -0.00202596
7.48143e-05 0.00178235 -0.00197014
0.000110408 0.00170746 -0.00189165
0.000132913 0.00159698 -0.00178841
0.000139176 0.00153047 -0.00172104
0.000156972 0.00146084 -0.0016362
0.000177164 0.00130376 -0.00144162
0.000186585 0.00112647 -0.00123472
0.000187239 0.000939752 -0.00102301
0.000180755 0.000752365 -0.000813437
0.000168468 0.000571452 -0.000612316
0.000143878 0.00040282 -0.000425489
0.000111921 0.000330795 -0.000345729
8.75621e-05 0.000274746 -0.000284721
7.19139e-05 0.000187 -0.000191891
6.03044e-05 0.000114892 -0.000116961
5.41806e-05 5.43858e-05 -5.5085e-05
0 0 0
0 0 0
0 0 0
0 0 0
0 0 0
0 0 0
0 0 0
0 0 0
0 0 0
0 0 0
0 0 0
0 0 0
0 0 0
0 0 0
0 0 0
0 0 0
0 0 0
0 0 0
0 0 0
0 0 0
0 0 0
0 0 0
0 0 0
0 0 0
0 0 0
0 0 0
0 0 0
0 0 0
0 0 0
0 0 0
0 0 0
0 0 0
0 0 0
0 0 0
0 0 0
0 0 0
0 0 0
0 0 0
0 0 0
0 0 0
0 0.00020036 0
0 0.000424882 0
0 0.000695704 0
0 0.00102981 0
0 0.00124806 0
0 0.00153257 0
0 0.00219974 0
0 0.00291791 0
0 0.00366553 0
0 0.00441828 0
0 0.00514863 0
0 0.00582555 0
0 0.00612166 0
0 0.00636779 0
0 0.00675306 0
0 0.00703638 0
0 0.00722412 0
0 0.00727021 0
0 0.00726965 0
0 0.00722302 0
0 0.00703436 0
0 0.00675034 0
0 0.00636469 0
0 0.0061186 0
0 0.00582279 0
0 0.00514694 0
0 0.00441803 0
0 0.0036669 0
0 0.00292084 0
0 0.00220389 0
0 0.00153739 0
0 0.00125283 0
0 0.00103422 0
0 0.000699085 0
0 0.000427149 0
0 0.000201493 0
0 0 0
0.000200539 0 0
0.000224696 0.000176569 5.43811e-05
0.000270986 0.000378556 0.000116703
0.000334264 0.000630474 0.000194344
0.000436636 0.000952351 0.000292968
0.000569184 0.00116915 0.000357872
0.000667319 0.00145393 0.000441586
0.000718344 0.00213091 0.000638674
0.000747806 0.00285987 0.000856505
0.000752976 0.00361582 0.00109076
0.000730609 0.00437432 0.00133605
0.000677201 0.00510807 0.00158537
0.000592511 0.00578427 0.00183035
0.000492552 0.00608133 0.00193291
0.000385586 0.00633519 0.0019962
0.000283624 0.00673729 0.00207173
0.00018804 0.00702568 0.00213253
9.24856e-05 0.00720728 0.00218757
-2.69352e-07 0.00725186 0.00220021
-9.29495e-05 0.00725129 0.00219991
-0.000188355 0.00720618 0.00218698
-0.000283684 0.00702365 0.0021314
-0.000385285 0.00673458 0.00207014
-0.00049177 0.00633215 0.00199427
-0.000591185 0.00607834 0.00193089
-0.000675364 0.00578159 0.00182838
-0.000728377 0.00510648 0.00158378
-0.00075053 0.00437422 0.00133503
-0.000745402 0.00361745 0.0010904
-0.000716261 0.0028632 0.000856789
-0.000665774 0.00213556 0.000639444
-0.000568379 0.00145919 0.000442618
-0.000436457 0.00117418 0.000358897
-0.000334371 0.000956883 0.000293873
-0.000271159 0.000633858 0.000194954
-0.000224873 0.000380793 0.000117067
-0.000200708 0.000177681 5.45489e-05
0 0 0
0.000377278 0 0
0.000426845 0.000127801 0.000102258
0.000523053 0.000282282 0.000221015
0.000656274 0.000492954 0.00037217
0.00087035 0.000789687 0.000568648
0.00113888 0.00100795 0.000700466
0.00134442 0.00128773 0.00087115
0.00144744 0.00198693 0.00127647
0.00150392 0.00273697 0.00172586
0.00151167 0.00350377 0.00221048
0.00146461 0.00426462 0.00272082
0.00135367 0.0049949 0.00324386
0.0011869 0.00566004 0.003761
0.00100056 0.00595471 0.00397856
0.000787972 0.00622072 0.00411494
0.000572297 0.00665295 0.00427695
0.000369914 0.00695006 0.00440313
0.000181895 0.00711928 0.00451475
-5.80662e-07 0.007161 0.00454005
-0.000182905 0.00716044 0.00453942
-0.000370622 0.00711821 0.0045135
-0.000572467 0.00694807 0.00440076
-0.000787385 0.00665035 0.00427362
-0.000999013 0.00621791 0.00411088
-0.00118429 0.00595202 0.00397433
-0.00135002 0.00565764 0.00375687
-0.00146011 0.00499358 0.00324053
-0.00150671 0.00426488 0.00271872
-0.00149901 0.00350594 0.00220982
-0.0014432 0.00274112 0.00172659
-0.00134142 0.00199269 0.00127824
-0.00113765 0.00129403 0.00087341
-0.000870302 0.00101346 0.000702617
-0.000656628 0.000794328 0.000570479
-0.000523446 0.00049625 0.000373348
-0.000427201 0.000284415 0.000221696
-0.000377601 0.000128853 0.000102566
0 0 0
0.000505232 0 0
0.000581469 5.28634e-05 0.000136917
0.000733845 0.000129765 0.000299668
0.000953097 0.000266294 0.000515066
0.00130695 0.000519678 0.000808043
0.0016985 0.000768731 0.00101291
0.00204368 0.00100762 0.00127569
0.00219756 0.00176276 0.0019137
0.00227084 0.00254823 0.00262318
0.00227268 0.00331712 0.00338948
0.00219508 0.00405873 0.00420238
0.00201905 0.00475777 0.00504593
0.00177649 0.00538106 0.00588781
0.00153283 0.00565972 0.0062457
0.00122046 0.0059334 0.00647987
0.00086963 0.0063985 0.00676056
0.000539341 0.0067051 0.00696387
0.000265512 0.00685852 0.00713114
-9.61494e-07 0.00689758 0.00716823
-0.000267208 0.0068971 0.00716719
-0.000540579 0.00685759 0.0071291
-0.000869988 0.00670335 0.00696