<?xml version="1.0"?>
<VTKFile type="RectilinearGrid" version="0.1" byte_order="LittleEndian">
<RectilinearGrid WholeExtent="0 37 0 14 0 34">
<Piece Extent="0 37 0 14 0 34">
<PointData>
<DataArray type="Float32" Name="MVP" NumberOfComponents="3" format="ascii">
0 0 0
0 0 0
0 0 0
0 0 0
0 0 0
0 0 0
0 0 0
0 0 0
0 0 0
0 0 0
0 0 0
0 0 0
0 0 0
0 0 0
0 0 0
0 0 0
0 0 0
0 0 0
0 0 0
0 0 0
0 0 0
0 0 0
0 0 0
0 0 0
0 0 0
0 0 0
0 0 0
0 0 0
0 0 0
0 0 0
0 0 0
0 0 0
0 0 0
0 0 0
0 0 0
0 0 0
0 0 0
0 0 0
0 0 0
0 0 4.45492e-05
0 0 9.42083e-05
0 0 0.000153599
0 0 0.00022622
0 0 0.000272789
0 0 0.000332754
0 0 0.000473838
0 0 0.00062601
0 0 0.00078414
0 0 0.000941964
0 0 0.00109202
0 0 0.00122542
0 0 0.00128448
0 0 0.00134024
0 0 0.0014326
0 0 0.00149581
0 0 0.00153043
0 0 0.00153928
0 0 0.00153985
0 0 0.00153154
0 0 0.00149788
0 0 0.00143542
0 0 0.0013435
0 0 0.00128783
0 0 0.00122875
0 0 0.00109506
0 0 0.000944553
0 0 0.000786192
0 0 0.000627507
0 0 0.000474799
0 0 0.000333214
0 0 0.000273052
0 0 0.000226397
0 0 0.000153737
0 0 9.431e-05
0 0 4.46039e-05
0 0 0
0 0 0
0 0 8.36128e-05
0 0 0.000177596
0 0 0.000291435
0 0 0.000432111
0 0 0.00052249
0 0 0.000638217
0 0 0.000912421
0 0 0.00120904
0 0 0.00151748
0 0 0.00182479
0 0 0.00211518
0 0 0.00236815
0 0 0.00248027
0 0 0.00259214
0 0 0.00278017
0 0 0.00290392
0 0 0.00296455
0 0 0.00298041
0 0 0.00298147
0 0 0.00296661
0 0 0.00290779
0 0 0.00278541
0 0 0.00259816
0 0 0.00248642
0 0 0.00237426
0 0 0.00212081
0 0 0.00182959
0 0 0.00152128
0 0 0.00121182
0 0 0.000914206
0 0 0.000639071
0 0 0.000522975
0 0 0.000432447
0 0 0.000291722
0 0 0.000177814
0 0 8.37316e-05
0 0 0
0 0 0
0 0 0.0001114
0 0 0.000238511
0 0 0.000396253
0 0 0.000595558
0 0 0.000723681
0 0 0.00088047
0 0 0.00125961
0 0 0.00167416
0 0 0.00210669
0 0 0.00253684
0 0 0.00293918
0 0 0.0032741
0 0 0.003422
0 0 0.00358811
0 0 0.00387408
0 0 0.00404882
0 0 0.00411391
0 0 0.0041328
0 0 0.0041341
0 0 0.00411645
0 0 0.00405366
0 0 0.00388059
0 0 0.00359542
0 0 0.00342939
0 0 0.00328151
0 0 0.00294613
0 0 0.0025428
0 0 0.00211143
0 0 0.00167763
0 0 0.00126186
0 0 0.000881552
0 0 0.000724303
0 0 0.000596034
0 0 0.000396724
0 0 0.00023888
0 0 0.0001116
0 0 0
0 0 0
0 0 0.000121667
0 0 0.000263705
0 0 0.000447414
0 0 0.000691281
0 0 0.000852142
0 0 0.0010003
0 0 0.00139556
0 0 0.00184898
0 0 0.00232959
0 0 0.00280865
0 0 0.00325289
0 0 0.00358829
0 0 0.00373084
0 0 0.00393701
0 0 0.00430028
0 0 0.00449711
0 0 0.00452745
0 0 0.00454463
0 0 0.00454553
0 0 0.00452923
0 0 0.00450067
0 0 0.00430504
0 0 0.00394202
0 0 0.00373575
0 0 0.00359339
0 0 0.00325804
0 0 0.00281321
0 0 0.00233333
0 0 0.00185183
0 0 0.00139744
0 0 0.00100121
0 0 0.000852771
0 0 0.000691939
0 0 0.000448141
0 0 0.000264268
0 0 0.000121967
0 0 0
0 0 0
0 0 0.00011167
0 0 0.000244175
0 0 0.000422254
0 0 0.00067902
0 0 0.00089441
0 0 0.000928604
0 0 0.00117077
0 0 0.00152142
0 0 0.00191053
0 0 0.00230455
0 0 0.00268284
0 0 0.00302727
0 0 0.00318026
0 0 0.00331874
0 0 0.00354845
0 0 0.00371124
0 0 0.00380766
0 0 0.00383164
0 0 0.00383155
0 0 0.00380749
0 0 0.00371092
0 0 0.00354805
0 0 0.00331834
0 0 0.00317991
0 0 0.00302699
0 0 0.0026828
0 0 0.00230485
0 0 0.00191119
0 0 0.00152231
0 0 0.00117153
0 0 0.000928754
0 0 0.000894844
0 0 0.000679691
0 0 0.000422996
0 0 0.000244744
0 0 0.000111971
0 0 0
0 0 0
0 0 8.27054e-05
0 0 0.000182191
0 0 0.000320714
0 0 0.000538273
0 0 0.000766528
0 0 0.000779537
0 0 0.000948302
0 0 0.00121871
0 0 0.0015247
0 0 0.00183615
0 0 0.00213555
0 0 0.00240824
0 0 0.00252945
0 0 0.00263923
0 0 0.00282159
0 0 0.00295092
0 0 0.00302743
0 0 0.00304636
0 0 0.00304588
0 0 0.00302648
0 0 0.00294914
0 0 0.00281923
0 0 0.00263664
0 0 0.00252688
0 0 0.00240579
0 0 0.00213359
0 0 0.00183494
0 0 0.00152433
0 0 0.00121908
0 0 0.0009491
0 0 0.000780338
0 0 0.000767608
0 0 0.00053889
0 0 0.000321247
0 0 0.000182597
0 0 8.29216e-05
0 0 0
0 0 0
0 0 8.14078e-09
0 0 1.5837e-08
0 0 2.2016e-08
0 0 2.35854e-08
0 0 1.67397e-08
0 0 1.14685e-08
0 0 7.28369e-09
0 0 3.90826e-09
0 0 2.94527e-10
0 0 -3.55865e-09
0 0 -7.64481e-09
0 0 -1.19132e-08
0 0 -1.39628e-08
0 0 -1.59175e-08
0 0 -1.95964e-08
0 0 -2.30212e-08
0 0 -2.60285e-08
0 0 -2.72668e-08
0 0 -2.91818e-08
0 0 -2.98533e-08
0 0 -3.0616e-08
0 0 -3.04757e-08
0 0 -2.94664e-08
0 0 -2.8794e-08
0 0 -2.8161e-08
0 0 -2.6695e-08
0 0 -2.46441e-08
0 0 -2.20845e-08
0 0 -1.91726e-08
0 0 -1.62132e-08
0 0 -1.38561e-08
0 0 -1.3386e-08
0 0 -1.12497e-08
0 0 -8.34148e-09
0 0 -5.52025e-09
0 0 -2.7414e-09
0 0 0
0 0 0
0 0 -8.26896e-05
0 0 -0.00018216
0 0 -0.000320671
0 0 -0.000538228
0 0 -0.000766493
0 0 -0.000779511
0 0 -0.000948285
0 0 -0.0012187
0 0 -0.0015247
0 0 -0.00183615
0 0 -0.00213556
0 0 -0.00240826
0 0 -0.00252948
0 0 -0.00263927
0 0 -0.00282163
0 0 -0.00295096
0 0 -0.00302748
0 0 -0.00304642
0 0 -0.00304594
0 0 -0.00302654
0 0 -0.0029492
0 0 -0.0028193
0 0 -0.0026367
0 0 -0.00252694
0 0 -0.00240584
0 0 -0.00213365
0 0 -0.00183499
0 0 -0.00152437
0 0 -0.00121912
0 0 -0.000949133
0 0 -0.000780363
0 0 -0.00076763
0 0 -0.00053891
0 0 -0.000321263
0 0 -0.000182608
0 0 -8.29269e-05
0 0 0
0 0 0
0 0 -0.000111655
0 0 -0.000244146
0 0 -0.000422214
0 0 -0.000678977
0 0 -0.000894375
0 0 -0.000928572
0 0 -0.00117075
0 0 -0.00152141
0 0 -0.00191052
0 0 -0.00230455
0 0 -0.00268285
0 0 -0.00302729
0 0 -0.00318029
0 0 -0.00331877
0 0 -0.0035485
0 0 -0.00371129
0 0 -0.00380772
0 0 -0.0038317
0 0 -0.00383162
0 0 -0.00380755
0 0 -0.00371099
0 0 -0.00354812
0 0 -0.0033184
0 0 -0.00317997
0 0 -0.00302704
0 0 -0.00268286
0 0 -0.00230491
0 0 -0.00191124
0 0 -0.00152235
0 0 -0.00117156
0 0 -0.000928777
0 0 -0.000894856
0 0 -0.000679708
0 0 -0.000423011
0 0 -0.000244754
0 0 -0.000111976
0 0 0
0 0 0
0 0 -0.000121653
0 0 -0.000263678
0 0 -0.000447376
0 0 -0.000691238
0 0 -0.0008521
0 0 -0.00100026
0 0 -0.00139552
0 0 -0.00184896
0 0 -0.00232957
0 0 -0.00280865
0 0 -0.00325289
0 0 -0.00358831
0 0 -0.00373086
0 0 -0.00393704
0 0 -0.00430031
0 0 -0.00449714
0 0 -0.00452749
0 0 -0.00454468
0 0 -0.00454558
0 0 -0.00452928
0 0 -0.00450072
0 0 -0.00430509
0 0 -0.00394207
0 0 -0.0037358
0 0 -0.00359344
0 0 -0.00325808
0 0 -0.00281325
0 0 -0.00233337
0 0 -0.00185186
0 0 -0.00139747
0 0 -0.00100123
0 0 -0.000852788
0 0 -0.000691955
0 0 -0.000448154
0 0 -0.000264277
0 0 -0.000121971
0 0 0
0 0 0
0 0 -0.000111389
0 0 -0.00023849
0 0 -0.000396223
0 0 -0.000595522
0 0 -0.000723645
0 0 -0.000880434
0 0 -0.00125958
0 0 -0.00167413
0 0 -0.00210667
0 0 -0.00253683
0 0 -0.00293918
0 0 -0.00327411
0 0 -0.00342201
0 0 -0.00358813
0 0 -0.0038741
0 0 -0.00404885
0 0 -0.00411394
0 0 -0.00413283
0 0 -0.00413413
0 0 -0.00411648
0 0 -0.00405369
0 0 -0.00388062
0 0 -0.00359545
0 0 -0.00342943
0 0 -0.00328155
0 0 -0.00294616
0 0 -0.00254283
0 0 -0.00211146
0 0 -0.00167766
0 0 -0.00126188
0 0 -0.000881569
0 0 -0.000724318
0 0 -0.000596048
0 0 -0.000396735
0 0 -0.000238888
0 0 -0.000111604
0 0 0
0 0 0
0 0 -8.36055e-05
0 0 -0.000177581
0 0 -0.000291415
0 0 -0.000432086
0 0 -0.000522464
0 0 -0.000638192
0 0 -0.000912398
0 0 -0.00120902
0 0 -0.00151746
0 0 -0.00182478
0 0 -0.00211517
0 0 -0.00236815
0 0 -0.00248028
0 0 -0.00259214
0 0 -0.00278018
0 0 -0.00290394
0 0 -0.00296457
0 0 -0.00298043
0 0 -0.00298149
0 0 -0.00296663
0 0 -0.00290782
0 0 -0.00278543
0 0 -0.00259818
0 0 -0.00248644
0 0 -0.00237428
0 0 -0.00212083
0 0 -0.00182961
0 0 -0.0015213
0 0 -0.00121183
0 0 -0.00091422
0 0 -0.000639083
0 0 -0.000522986
0 0 -0.000432456
0 0 -0.00029173
0 0 -0.000177819
0 0 -8.37341e-05
0 0 0
0 0 0
0 0 -4.45455e-05
0 0 -9.42012e-05
0 0 -0.000153589
0 0 -0.000226208
0 0 -0.000272776
0 0 -0.000332741
0 0 -0.000473826
0 0 -0.000626
0 0 -0.000784133
0 0 -0.00094196
0 0 -0.00109202
0 0 -0.00122542
0 0 -0.00128448
0 0 -0.00134024
0 0 -0.00143261
0 0 -0.00149582
0 0 -0.00153044
0 0 -0.00153928
0 0 -0.00153985
0 0 -0.00153155
0 0 -0.00149789
0 0 -0.00143543
0 0 -0.00134351
0 0 -0.00128784
0 0 -0.00122876
0 0 -0.00109507
0 0 -0.000944561
0 0 -0.000786201
0 0 -0.000627515
0 0 -0.000474806
0 0 -0.00033322
0 0 -0.000273058
0 0 -0.000226402
0 0 -0.00015374
0 0 -9.43125e-05
0 0 -4.46052e-05
0 0 0
0 0 0
0 0 0
0 0 0
0 0 0
0 0 0
0 0 0
0 0 0
0 0 0
0 0 0
0 0 0
0 0 0
0 0 0
0 0 0
0 0 0
0 0 0
0 0 0
0 0 0
0 0 0
0 0 0
0 0 0
0 0 0
0 0 0
0 0 0
0 0 0
0 0 0
0 0 0
0 0 0
0 0 0
0 0 0
0 0 0
0 0 0
0 0 0
0 0 0
0 0 0
0 0 0
0 0 0
0 0 0
0 0 0
0 0 0
0 4.43033e-05 0
0 9.35975e-05 0
0 0.000152399 0
0 0.000224141 0
0 0.00027016 0
0 0.000329509 0
0 0.000469198 0
0 0.000619866 0
0 0.00077647 0
0 0.000932809 0
0 0.00108147 0
0 0.00121363 0
0 0.00127213 0
0 0.00132738 0
0 0.00141891 0
0 0.00148153 0
0 0.00151582 0
0 0.00152459 0
0 0.00152521 0
0 0.00151702 0
0 0.00148377 0
0 0.00142191 0
0 0.0013308 0
0 0.00127558 0
0 0.00121698 0
0 0.00108435 0
0 0.000934966 0
0 0.000777753 0
0 0.000620209 0
0 0.000468612 0
0 0.000328104 0
0 0.000268469 0
0 0.000222334 0
0 0.000150703 0
0 9.22929e-05 0
0 4.35971e-05 0
0 0 0
4.4087e-05 0 0
4.91344e-05 3.88803e-05 4.50227e-05
5.87467e-05 8.28953e-05 9.5582e-05
7.18222e-05 0.000136792 0.00015679
9.22261e-05 0.000203961 0.000232649
0.000118954 0.000247197 0.000282675
0.000140039 0.000302311 0.000348607
0.000151111 0.00043396 0.000504297
0.000157102 0.000576855 0.000672671
0.000156851 0.000725612 0.000848559
0.000149148 0.000873603 0.0010263
0.000132571 0.00101254 0.00119979
0.00011735 0.00113086 0.0013626
0.000110775 0.00118336 0.00143352
9.16956e-05 0.00123896 0.00148994
6.26251e-05 0.00133379 0.00157652
3.41286e-05 0.00139374 0.00164237
1.72521e-05 0.00141942 0.00168926
2.00931e-07 0.00142636 0.00170094
-1.69108e-05 0.0014269 0.0017017
-3.39048e-05 0.00142047 0.00169072
-6.26348e-05 0.00139572 0.00164508
-9.20146e-05 0.00133642 0.00158021
-0.000111395 0.00124189 0.00149426
-0.000118208 0.00118628 0.00143796
-0.000133683 0.00113371 0.00136694
-0.000150476 0.00101501 0.00120363
-0.000158318 0.000875437 0.00102947
-0.000158647 0.000726655 0.000851011
-0.000152683 0.000577026 0.00067442
-0.000141576 0.000433236 0.000505388
-0.000120322 0.000300757 0.000349091
-9.33139e-05 0.000245346 0.000282913
-7.26647e-05 0.000201991 0.000232788
-5.94312e-05 0.000134951 0.000156911
-4.97093e-05 8.14862e-05 9.56772e-05
-4.46065e-05 3.81201e-05 4.50755e-05
0 0 0
8.27926e-05 0 0
9.30403e-05 2.77261e-05 8.47553e-05
0.000112658 6.06622e-05 0.000180892
0.000139168 0.000104102 0.000299225
0.000179003 0.000161847 0.000448606
0.000229565 0.000198959 0.000548888
0.000272177 0.000239281 0.000681957
0.000294588 0.000342575 0.000999357
0.000306491 0.000458854 0.00134277
0.000305484 0.000581361 0.00170056
0.000288694 0.000702696 0.00206137
0.000251422 0.000813245 0.00241335
0.0002228 0.00089393 0.00274409
0.000222368 0.00092914 0.00288851
0.00018679 0.000982883 0.00300367
0.000122668 0.00107997 0.00318091
5.97128e-05 0.00113037 0.00331523
3.09184e-05 0.00113449 0.00341035
3.79356e-07 0.00113746 0.00343393
-3.02658e-05 0.00113776 0.00343546
-5.92648e-05 0.00113508 0.00341331
-0.000122683 0.00113152 0.00332072
-0.000187426 0.00108147 0.00318836
-0.000223559 0.000984389 0.00301237
-0.000224348 0.000930571 0.00289742
-0.000253431 0.000895357 0.00275279
-0.000291141 0.000814538 0.00242102
-0.000308206 0.000703597 0.00206769
-0.000309378 0.000581722 0.00170544
-0.000297554 0.000458561 0.00134623
-0.000275112 0.000341521 0.00100152
-0.000232187 0.000237404 0.00068293
-0.000181059 0.000196765 0.000549354
-0.000140731 0.000159535 0.000448884
-0.000113913 0.000101967 0.000299495
-9.40869e-05 5.90461e-05 0.000181109
-8.37348e-05 2.68605e-05 8.48754e-05
0 0 0
0.000110419 0 0
0.000125962 1.03737e-05 0.000113681
0.000156248 2.52859e-05 0.000244926
0.000197293 5.09614e-05 0.000411499
0.000253794 9.4712e-05 0.000629695
0.000310885 0.000126705 0.000782022
0.00037627 0.000117101 0.000984545
0.000411748 0.000131244 0.00148126
0.000429915 0.000168389 0.00201736
0.000427733 0.000214863 0.00257137
0.000400112 0.000262268 0.00312678
0.000332884 0.000302753 0.00366735
0.000293896 0.00030196 0.00417696
0.00033045 0.000296052 0.00440072
0.000284346 0.000335598 0.00457923
0.000173334 0.000412042 0.00485588
6.38999e-05 0.000433533 0.00506506
3.67616e-05 0.000398461 0.00521258
4.34827e-07 0.000396687 0.00524865
-3.60037e-05 0.00039635 0.00525099
-6.3344e-05 0.000397818 0.00521714
-0.000173425 0.000432478 0.00507349
-0.000285345 0.000410565 0.00486727
-0.000332123 0.000333573 0.00459242
-0.000295756 0.00029382 0.00441418
-0.000335297 0.000299873 0.00419009
-0.000403177 0.00030105 0.0036789
-0.000431194 0.000260767 0.00313626
-0.000433638 0.00021349 0.00257864
-0.000415662 0.000166984 0.00202249
-0.000380258 0.000129503 0.00148447
-0.000314475 0.000114619 0.000986059
-0.000256526 0.000123929 0.000782711
-0.000199306 9.18618e-05 0.000630148
-0.000157843 4.83838e-05 0.000411999
-0.00012728 2.33692e-05 0.000245327
-0.000111601 9.3584e-06 0.000113899
0 0 0
0.000120786 0 0
0.000140981 -1.97559e-05 0.000126111
0.000182268 -3.86781e-05 0.000275444
0.000241762 -5.00206e-05 0.000474203
0.000318856 -2.47726e-05 0.000752807
0.000292953 8.35223e-05 0.000966706
0.000391802 -0.00014602 0.00123872
0.000450306 -0.000454521 0.00196692
0.000477798 -0.000661801 0.0027392
0.000476515 -0.000846352 0.0035204
0.000441901 -0.00101792 0.00429318
0.000333277 -0.00115122 0.00503953
0.000283137 -0.00113443 0.00574583
0.0004105 -0.00111411 0.00605947
0.000361589 -0.00125002 0.00630936
0.000195385 -0.00151799 0.00670385
2.91421e-05 -0.00158667 0.00700177
3.33469e-05 -0.00145484 0.0072112
5.20714e-08 -0.00144131 0.0072606
-3.32842e-05 -0.00144322 0.00726384
-2.90669e-05 -0.00145861 0.00721751
-0.000195931 -0.00159419 0.00701348
-0.000363118 -0.001528 0.00671959
-0.000412531 -0.00126051 0.00632737
-0.000284618 -0.00112432 0.0060778
-0.000335174 -0.00114491 0.00576372
-0.000444579 -0.00116139 0.00505531
-0.000479607 -0.00102637 0.00430612
-0.000481252 -0.00085267 0.00353021
-0.000454182 -0.000666201 0.00274601
-0.00039609 -0.000457864 0.0019712
-0.00029677 -0.000149914 0.001241
-0.000321592 7.96567e-05 0.000967709
-0.000243755 -2.85075e-05 0.000753669
-0.000183852 -5.3304e-05 0.000475127
-0.000142293 -4.10573e-05 0.000276131
-0.000121963 -2.09962e-05 0.000126468
0 0 0
0.000110936 0 0
0.000131619 -5.76148e-05 0.000116665
0.000176853 -0.000123419 0.00025706
0.000254929 -0.000202476 0.000450733
0.000428078 -0.00028117 0.00074253
6.46163e-05 -0.000255703 0.00101917
0.000238672 -0.000300951 0.00129564
0.000347721 -0.000450174 0.00225554
0.000386543 -0.000612283 0.00321374
0.000391714 -0.000780003 0.0041531
0.000376185 -0.00094661 0.00506928
0.000342521 -0.00110579 0.00594245
0.000304228 -0.00125055 0.00673772
0.000275297 -0.00131469 0.00708889
0.000228214 -0.00137259 0.00740422
0.000161505 -0.00146817 0.00791921
9.53696e-05 -0.00153568 0.0082785
4.70803e-05 -0.00157583 0.00849025
-8.09228e-07 -0.001586 0.00854377
-4.86931e-05 -0.00158672 0.00854765
-9.69713e-05 -0.00157725 0.00849781
-0.000163077 -0.00153835 0.00829269
-0.000229742 -0.00147175 0.0079382
-0.000276787 -0.00137661 0.00742557
-0.000305697 -0.00131876 0.00711048
-0.000343962 -0.00125455 0.00675895
-0.000377656 -0.00110935 0.00596148
-0.000393355 -0.000949501 0.0050849
-0.000388589 -0.000782108 0.00416485
-0.00035052 -0.000613608 0.00322179
-0.000242511 -0.00045089 0.00226073
-6.75305e-05 -0.000301854 0.00129878
-0.000430149 -0.000258827 0.00102012
-0.000256619 -0.000285561 0.000743475
-0.000178222 -0.00020649 0.000451697
-0.000132762 -0.000126294 0.000257766
-0.000111966 -5.9099e-05 0.00011703
0 0 0
8.21751e-05 0 0
9.88418e-05 -8.22978e-05 8.61696e-05
0.000137628 -0.000181437 0.000190898
0.000216242 -0.000319769 0.000338026
0.000454807 -0.000537541 0.000564116
2.42558e-05 -0.000766361 0.000778479
0.000167434 -0.000782774 0.000602042
0.000269575 -0.000953902 0.000759322
0.000305434 -0.00122578 0.00104286
0.000311041 -0.00153317 0.0013315
0.000299077 -0.00184602 0.00161493
0.000272407 -0.00214679 0.00188622
0.00024215 -0.00242075 0.00213414
0.000219301 -0.00254252 0.00224374
0.000182076 -0.00265283 0.00234216
0.000129033 -0.00283604 0.00250248
7.62046e-05 -0.00296597 0.00261316
3.754e-05 -0.00304281 0.00267672
-8.19433e-07 -0.00306181 0.00269187
-3.91295e-05 -0.00306126 0.0026895
-7.76972e-05 -0.00304174 0.0026721
-0.000130277 -0.00296395 0.00260449
-0.000182983 -0.00283337 0.00249093
-0.000219931 -0.00264988 0.00232927
-0.000242602 -0.0025396 0.00223085
-0.000272617 -0.00241796 0.00212164
-0.000299087 -0.00214456 0.00187565
-0.000311031 -0.00184463 0.00160729
-0.000305633 -0.00153276 0.0013273
-0.000270264 -0.00122633 0.00104213
-0.00016879 -0.000955344 0.000761502
-2.51757e-05 -0.000785683 0.000604834
-0.000457217 -0.000771876 0.000777791
-0.000217545 -0.000542741 0.000564302
-0.000138616 -0.0003242 0.00033857
-9.96634e-05 -0.000184586 0.000191369
-8.29166e-05 -8.39202e-05 8.64245e-05
0 0 0
9.44714e-09 0 0
9.00504e-09 -8.22983e-05 9.3473e-09
7.4774e-09 -0.000181438 1.90819e-08
2.80548e-09 -0.000319771 2.98252e-08
-1.25841e-08 -0.000537543 4.29736e-08
-9.55479e-09 -0.000766359 5.32374e-08
-3.20362e-09 -0.000782771 -1.44199e-08
-2.27299e-09 -0.000953899 -4.11318e-09
-2.39324e-09 -0.00122578 -1.94903e-09
-2.55749e-09 -0.00153317 -1.21091e-09
-2.77011e-09 -0.00184602 -5.76678e-10
-2.98718e-09 -0.00214679 1.70653e-12
-2.88289e-09 -0.00242075 4.8248e-10
-2.7497e-09 -0.00254252 6.68937e-10
-2.61015e-09 -0.00265283 8.2495e-10
-2.4959e-09 -0.00283604 1.03751e-09
-2.22867e-09 -0.00296597 1.13368e-09
-1.81122e-09 -0.00304282 1.13663e-09
-1.36037e-09 -0.00306181 1.1099e-09
-8.91031e-10 -0.00306126 1.01164e-09
-4.07859e-10 -0.00304174 9.50311e-10
3.79186e-10 -0.00296395 8.13172e-10
1.15045e-09 -0.00283337 6.52712e-10
1.43256e-09 -0.00264988 4.72052e-10
1.32802e-09 -0.0025396 3.76418e-10
1.48903e-09 -0.00241796 3.08632e-10
2.03057e-09 -0.00214456 1.76561e-10
2.51085e-09 -0.00184464 4.90561e-11
2.84849e-09 -0.00153276 -6.13356e-11
2.89448e-09 -0.00122633 -1.55246e-10
2.30572e-09 -0.000955344 -3.19178e-10
9.20816e-10 -0.000785681 -2.83836e-09
4.28323e-09 -0.000771871 -1.53051e-08
2.9334e-09 -0.000542739 -1.32987e-08
2.84873e-09 -0.000324199 -9.40383e-09
2.80521e-09 -0.000184585 -5.97917e-09
2.76699e-09 -8.392e-05 -2.90384e-09
0 0 0
-8.21568e-05 0 0
-9.88244e-05 -5.76163e-05 -8.61514e-05
-0.000137614 -0.000123422 -0.000190861
-0.000216236 -0.00020248 -0.000337968
-0.000454826 -0.000281174 -0.000564033
-2.42716e-05 -0.000255703 -0.000778376
-0.00016744 -0.000300938 -0.000602074
-0.00026958 -0.000450161 -0.00075934
-0.000305439 -0.000612273 -0.00104287
-0.000311047 -0.000779996 -0.0013315
-0.000299083 -0.000946606 -0.00161493
-0.000272414 -0.00110579 -0.00188622
-0.000242156 -0.00125056 -0.00213413
-0.000219307 -0.0013147 -0.00224374
-0.000182081 -0.0013726 -0.00234215
-0.000129039 -0.00146818 -0.00250247
-7.62093e-05 -0.00153569 -0.00261315
-3.75438e-05 -0.00157583 -0.00267671
8.16641e-07 -0.001586 -0.00269186
3.91278e-05 -0.00158673 -0.00268949
7.76965e-05 -0.00157725 -0.0026721
0.000130278 -0.00153836 -0.00260449
0.000182986 -0.00147175 -0.00249092
0.000219934 -0.00137662 -0.00232927
0.000242605 -0.00131876 -0.00223084
0.00027262 -0.00125455 -0.00212164
0.000299091 -0.00110935 -0.00187565
0.000311036 -0.000949504 -0.00160729
0.000305639 -0.00078211 -0.00132731
0.00027027 -0.000613609 -0.00104213
0.000168797 -0.000450891 -0.000761507
2.51824e-05 -0.000301849 -0.000604844
0.000457221 -0.000258807 -0.000777823
0.00021755 -0.000285554 -0.000564329
0.000138622 -0.000206488 -0.000338588
9.96687e-05 -0.000126293 -0.000191381
8.2922e-05 -5.90985e-05 -8.64302e-05
0 0 0
-0.000110919 0 0
-0.000131602 -1.97583e-05 -0.000116648
-0.000176839 -3.86826e-05 -0.000257025
-0.000254923 -5.00259e-05 -0.000450678
-0.000428094 -2.47734e-05 -0.000742452
-6.46176e-05 8.35362e-05 -0.00101908
-0.000238678 -0.000146005 -0.00129555
-0.000347727 -0.000454501 -0.00225547
-0.000386549 -0.00066178 -0.00321368
-0.00039172 -0.000846332 -0.00415306
-0.000376192 -0.0010179 -0.00506925
-0.000342528 -0.0011512 -0.00594244
-0.000304236 -0.00113441 -0.00673772
-0.000275302 -0.00111409 -0.0070889
-0.000228219 -0.00125 -0.00740422
-0.00016151 -0.00151797 -0.00791923
-9.53743e-05 -0.00158665 -0.00827853
-4.70839e-05 -0.00145481 -0.00849028
8.06676e-07 -0.00144128 -0.00854381
4.86917e-05 -0.00144319 -0.00854768
9.6971e-05 -0.00145858 -0.00849785
0.000163078 -0.00159416 -0.00829273
0.000229746 -0.00152797 -0.00793824
0.000276792 -0.00126048 -0.00742561
0.0003057 -0.0011243 -0.00711052
0.000343965 -0.00114489 -0.00675899
0.00037766 -0.00116137 -0.00596151
0.000393361 -0.00102635 -0.00508493
0.000388595 -0.000852652 -0.00416488
0.000350527 -0.000666187 -0.00322183
0.000242522 -0.000457855 -0.00226076
6.75521e-05 -0.000149912 -0.00129881
0.000430139 7.96464e-05 -0.00102015
0.000256621 -2.85073e-05 -0.000743502
0.000178226 -5.3302e-05 -0.000451715
0.000132767 -4.10557e-05 -0.000257778
0.000111971 -2.09954e-05 -0.000117036
0 0 0
-0.000120769 0 0
-0.000140966 1.03706e-05 -0.000126096
-0.000182255 2.52798e-05 -0.000275413
-0.000241754 5.09532e-05 -0.000474154
-0.000318856 9.47043e-05 -0.000752741
-0.000292952 0.0001267 -0.000966632
-0.000391805 0.000117097 -0.00123865
-0.000450311 0.000131242 -0.00196686
-0.000477804 0.000168388 -0.00273915
-0.000476521 0.000214865 -0.00352037
-0.000441908 0.000262272 -0.00429316
-0.000333284 0.000302759 -0.00503952
-0.000283144 0.000301969 -0.00574583
-0.000410505 0.000296062 -0.00605948
-0.000361593 0.000335609 -0.00630937
-0.000195389 0.000412054 -0.00670387
-2.91462e-05 0.000433547 -0.00700179
-3.33497e-05 0.000398477 -0.00721124
-5.38669e-08 0.000396704 -0.00726063
3.32835e-05 0.000396367 -0.00726388
2.90674e-05 0.000397836 -0.00721755
0.000195932 0.000432496 -0.00701352
0.00036312 0.000410582 -0.00671963
0.000412533 0.00033359 -0.00632741
0.00028462 0.000293836 -0.00607784
0.000335178 0.000299889 -0.00576375
0.000444583 0.000301065 -0.00505534
0.000479611 0.000260781 -0.00430615
0.000481256 0.000213502 -0.00353024
0.000454187 0.000166994 -0.00274604
0.000396097 0.000129511 -0.00197123
0.000296779 0.000114623 -0.00124103
0.000321593 0.000123931 -0.000967737
0.000243758 9.18646e-05 -0.000753692
0.000183856 4.83866e-05 -0.000475143
0.000142297 2.33712e-05 -0.000276141
0.000121967 9.35945e-06 -0.000126473
0 0 0
-0.000110406 0 0
-0.00012595 2.77224e-05 -0.000113669
-0.000156237 6.06551e-05 -0.000244902
-0.000197285 0.000104092 -0.000411464
-0.00025379 0.000161835 -0.000629649
-0.000310883 0.000198948 -0.000781973
-0.000376271 0.00023927 -0.000984495
-0.000411752 0.000342565 -0.00148122
-0.00042992 0.000458847 -0.00201733
-0.000427739 0.000581356 -0.00257135
-0.000400117 0.000702694 -0.00312676
-0.000332889 0.000813246 -0.00366734
-0.000293901 0.000893934 -0.00417697
-0.000330453 0.000929146 -0.00440072
-0.000284349 0.00098289 -0.00457924
-0.000173336 0.00107998 -0.00485589
-6.39023e-05 0.00113038 -0.00506508
-3.67632e-05 0.00113451 -0.00521261
-4.35757e-07 0.00113747 -0.00524868
3.60035e-05 0.00113777 -0.00525102
6.33445e-05 0.00113509 -0.00521716
0.000173426 0.00113154 -0.00507352
0.000285346 0.00108148 -0.0048673
0.000332125 0.000984402 -0.00459244
0.000295758 0.000930584 -0.00441421
0.000335299 0.00089537 -0.00419012
0.00040318 0.000814549 -0.00367892
0.000431196 0.000703608 -0.00313629
0.000433641 0.000581732 -0.00257866
0.000415665 0.00045857 -0.00202251
0.000380261 0.000341529 -0.00148449
0.000314479 0.000237409 -0.000986079
0.000256528 0.00019677 -0.00078273
0.000199309 0.000159539 -0.000630164
0.000157846 0.00010197 -0.000412011
0.000127284 5.90485e-05 -0.000245334
0.000111605 2.68617e-05 -0.000113902
0 0 0
-8.27839e-05 0 0
-9.30319e-05 3.88764e-05 -8.47474e-05
-0.00011265 8.28878e-05 -0.000180876
-0.000139162 0.000136782 -0.000299202
-0.000178999 0.000203948 -0.000448577
-0.000229563 0.000247184 -0.000548857
-0.000272177 0.000302297 -0.000681926
-0.00029459 0.000433948 -0.000999329
-0.000306494 0.000576846 -0.00134275
-0.000305487 0.000725605 -0.00170055
-0.000288698 0.000873599 -0.00206135
-0.000251425 0.00101254 -0.00241335
-0.000222803 0.00113086 -0.00274409
-0.00022237 0.00118336 -0.00288852
-0.000186792 0.00123897 -0.00300368
-0.00012267 0.0013338 -0.00318092
-5.97142e-05 0.00139375 -0.00331524
-3.09192e-05 0.00141943 -0.00341036
-3.798e-07 0.00142637 -0.00343395
3.02658e-05 0.00142691 -0.00343548
5.92651e-05 0.00142048 -0.00341333
0.000122683 0.00139573 -0.00332074
0.000187427 0.00133643 -0.00318838
0.000223559 0.0012419 -0.00301239
0.000224349 0.00118629 -0.00289744
0.000253433 0.00113372 -0.00275281
0.000291142 0.00101502 -0.00242103
0.000308208 0.000875446 -0.0020677
0.000309379 0.000726664 -0.00170545
0.000297556 0.000577033 -0.00134624
0.000275114 0.000433243 -0.00100153
0.000232189 0.000300763 -0.000682942
0.000181061 0.000245352 -0.000549365
0.000140733 0.000201996 -0.000448895
0.000113916 0.000134955 -0.000299503
9.40894e-05 8.14887e-05 -0.000181114
8.37373e-05 3.81213e-05 -8.4878e-05
0 0 0
-4.40826e-05 0 0
-4.91301e-05 4.42994e-05 -4.50188e-05
-5.87429e-05 9.35899e-05 -9.55742e-05
-7.18189e-05 0.000152388 -0.000156778
-9.2224e-05 0.000224128 -0.000232635
-0.000118953 0.000270146 -0.00028266
-0.000140039 0.000329495 -0.000348592
-0.000151112 0.000469185 -0.000504283
-0.000157103 0.000619856 -0.00067266
-0.000156853 0.000776463 -0.00084855
-0.00014915 0.000932805 -0.00102629
-0.000132573 0.00108147 -0.00119979
-0.000117352 0.00121363 -0.00136261
-0.000110776 0.00127214 -0.00143352
-9.16964e-05 0.00132739 -0.00148994
-6.26258e-05 0.00141892 -0.00157653
-3.41292e-05 0.00148153 -0.00164238
-1.72525e-05 0.00151583 -0.00168926
-2.01104e-07 0.0015246 -0.00170095
1.69108e-05 0.00152522 -0.00170171
3.3905e-05 0.00151703 -0.00169073
6.26351e-05 0.00148378 -0.00164508
9.20149e-05 0.00142193 -0.00158022
0.000111396 0.00133081 -0.00149427
0.000118208 0.00127559 -0.00143797
0.000133683 0.00121699 -0.00136695
0.000150477 0.00108436 -0.00120363
0.000158319 0.000934975 -0.00102948
0.000158647 0.000777762 -0.000851019
0.000152684 0.000620216 -0.000674427
0.000141577 0.000468619 -0.000505395
0.000120323 0.00032811 -0.000349097
9.3315e-05 0.000268475 -0.000282918
7.26659e-05 0.000222339 -0.000232793
5.94324e-05 0.000150706 -0.000156915
4.97106e-05 9.22954e-05 -9.56798e-05
4.46078e-05 4.35983e-05 -4.50768e-05
0 0 0
0 0 0
0 0 0
0 0 0
0 0 0
0 0 0
0 0 0
0 0 0
0 0 0
0 0 0
0 0 0
0 0 0
0 0 0
0 0 0
0 0 0
0 0 0
0 0 0
0 0 0
0 0 0
0 0 0
0 0 0
0 0 0
0 0 0
0 0 0
0 0 0
0 0 0
0 0 0
0 0 0
0 0 0
0 0 0
0 0 0
0 0 0
0 0 0
0 0 0
0 0 0
0 0 0
0 0 0
0 0 0
0 0 0
0 0 0
0 0.000163985 0
0 0.000347365 0
0 0.00056797 0
0 0.00083969 0
0 0.00101762 0
0 0.00125109 0
0 0.00180207 0
0 0.00239754 0
0 0.00301891 0
0 0.00364506 0
0 0.00425247 0
0 0.00481526 0
0 0.00506132 0
0 0.0052656 0
0 0.00558567 0
0 0.00582225 0
0 0.00598069 0
0 0.00602045 0
0 0.00602326 0
0 0.00598614 0
0 0.00583233 0
0 0.00559923 0
0 0.00528117 0
0 0.00507709 0
0 0.00483048 0
0 0.00426528 0
0 0.00365457 0
0 0.00302463 0
0 0.00239927 0
0 0.00179991 0
0 0.00124548 0
0 0.00101077 0
0 0.000832345 0
0 0.000561097 0
0 0.000342092 0
0 0.000161133 0
0 0 0
0.000162712 0 0
0.000182312 0.000144666 4.45952e-05
0.000219911 0.000309679 9.57138e-05
0.000271512 0.000514632 0.000159432
0.000356029 0.000775535 0.000240467
0.000467365 0.000951201 0.000293886
0.000551752 0.00118352 0.000363099
0.000596604 0.00174225 0.00052706
0.000622733 0.00234756 0.000708942
0.000627594 0.00297707 0.000904799
0.000608786 0.00360903 0.00110969
0.000563939 0.00422 0.00131738
0.000492979 0.00478258 0.00152071
0.000409213 0.00502953 0.00160564
0.000320325 0.00524035 0.00165816
0.000236244 0.00557457 0.00172128
0.000157479 0.0058155 0.00177243
7.81132e-05 0.0059689 0.00181898
9.46434e-07 0.00600741 0.00183008
-7.65231e-05 0.0060102 0.00183128
-0.000156479 0.00597432 0.0018213
-0.000236219 0.00582554 0.00177667
-0.000321567 0.00558803 0.00172705
-0.000411898 0.00525564 0.00166496
-0.000497072 0.00504495 0.00161256
-0.000569203 0.00479746 0.00152728
-0.000614814 0.00423255 0.00132277
-0.000634082 0.00361835 0.00111386
-0.000629461 0.00298265 0.000907818
-0.000603395 0.00234919 0.000710946
-0.000558393 0.00173992 0.000528191
-0.000473321 0.00117749 0.000363452
-0.000360698 0.000943727 0.000293931
-0.000275052 0.000767483 0.000240424
-0.000222752 0.000507124 0.000159454
-0.000184666 0.000303951 9.57603e-05
-0.000164821 0.000141582 4.46284e-05
0 0 0
0.000306252 0 0
0.00034643 0.000105113 8.38046e-05
0.000424398 0.000231552 0.000181134
0.0005325 0.000402712 0.000305032
0.000707879 0.000641703 0.000466172
0.000932794 0.000815762 0.000574336
0.00111166 0.00103906 0.000715037
0.00120347 0.00161574 0.00105212
0.00125402 0.00224126 0.00142756
0.00126142 0.00288258 0.00183302
0.00122154 0.00351862 0.00225951
0.00112806 0.0041281 0.00269527
0.000988103 0.00468219 0.00312431
0.000831846 0.00492736 0.00330425
0.000655125 0.0051486 0.00341715
0.000477114 0.00550842 0.00355224
0.00031016 0.00575682 0.00365838
0.000153932 0.00589983 0.00375296
2.06246e-06 0.00593591 0.00377528
-0.000150397 0.00593858 0.00377784
-0.000307783 0.00590503 0.00375791
-0.000476752 0.00576652 0.00366746
-0.00065739 0.0055213 0.00356457
-0.000836966 0.00516292 0.00343155
-0.000995874 0.00494168 0.00331881
-0.00113811 0.00469603 0.00313806
-0.00123311 0.00413988 0.00270644
-0.00127392 0.00352741 0.00226805
-0.00126703 0.00288785 0.00183914
-0.0012167 0.00224273 0.00143159
-0.00112477 0.00161323 0.00105439
-0.000944734 0.00103232 0.00071577
-0.000717038 0.000806922 0.000574435
-0.000539208 0.000632091 0.000466107
-0.000429668 0.000393877 0.000305133
-0.00035074 0.000224914 0.000181277
-0.000310089 0.000101574 8.38975e-05
0 0 0
0.000410501 0 0
0.000472289 4.43668e-05 0.000112097
0.000595506 0.000108075 0.000245322
0.000772131 0.000219467 0.000421568
0.00105718 0.000422646 0.00066117
0.0013809 0.000616453 0.000828301
0.00169029 0.000788381 0.00104327
0.00183131 0.00141392 0.00157373
0.00189791 0.00207609 0.00216727
0.00190009 0.00272401 0.0028092
0.00183356 0.00334688 0.00348915
0.00168442 0.0039321 0.00419225
0.00148035 0.00445216 0.00489055
0.00127598 0.00468434 0.00518602
0.00101612 0.00491276 0.00537926
0.000725981 0.00530107 0.00561248
0.000452905 0.00555754 0.00578343
0.0002253 0.00568672 0.00592578