<?xml version="1.0"?>
<VTKFile type="RectilinearGrid" version="0.1" byte_order="LittleEndian">
<RectilinearGrid WholeExtent="0 37 0 14 0 34">
<Piece Extent="0 37 0 14 0 34">
<PointData>
<DataArray type="Float32" Name="MVP" NumberOfComponents="3" format="ascii">
0 0 0
0 0 0
0 0 0
0 0 0
0 0 0
0 0 0
0 0 0
0 0 0
0 0 0
0 0 0
0 0 0
0 0 0
0 0 0
0 0 0
0 0 0
0 0 0
0 0 0
0 0 0
0 0 0
0 0 0
0 0 0
0 0 0
0 0 0
0 0 0
0 0 0
0 0 0
0 0 0
0 0 0
0 0 0
0 0 0
0 0 0
0 0 0
0 0 0
0 0 0
0 0 0
0 0 0
0 0 0
0 0 0
0 0 0
0 0 6.01413e-05
0 0 0.000127024
0 0 0.000206658
0 0 0.000303404
0 0 0.000365161
0 0 0.000444566
0 0 0.000630137
0 0 0.000828685
0 0 0.00103398
0 0 0.00123834
0 0 0.00143213
0 0 0.00160336
0 0 0.00167925
0 0 0.00175213
0 0 0.0018732
0 0 0.00195447
0 0 0.00199671
0 0 0.0020071
0 0 0.00200616
0 0 0.00199487
0 0 0.00195103
0 0 0.00186854
0 0 0.00174673
0 0 0.00167375
0 0 0.00159803
0 0 0.0014276
0 0 0.00123494
0 0 0.00103188
0 0 0.000827847
0 0 0.000630364
0 0 0.000445562
0 0 0.000366341
0 0 0.000304529
0 0 0.000207438
0 0 0.000127489
0 0 6.03535e-05
0 0 0
0 0 0
0 0 0.00011276
0 0 0.000239102
0 0 0.000391209
0 0 0.000577541
0 0 0.000696709
0 0 0.000849722
0 0 0.00120954
0 0 0.00159489
0 0 0.00199336
0 0 0.00238927
0 0 0.00276218
0 0 0.003084
0 0 0.00322679
0 0 0.00337294
0 0 0.00361964
0 0 0.00377812
0 0 0.00385
0 0 0.00386817
0 0 0.00386633
0 0 0.00384641
0 0 0.00377144
0 0 0.00361061
0 0 0.00336253
0 0 0.00321622
0 0 0.00307375
0 0 0.00275348
0 0 0.00238282
0 0 0.00198948
0 0 0.00159351
0 0 0.00121024
0 0 0.000851839
0 0 0.000699106
0 0 0.000579753
0 0 0.000392664
0 0 0.000239936
0 0 0.000113131
0 0 0
0 0 0
0 0 0.00014989
0 0 0.000320007
0 0 0.000528882
0 0 0.000788566
0 0 0.000954074
0 0 0.00116028
0 0 0.00165435
0 0 0.0021869
0 0 0.00273898
0 0 0.0032865
0 0 0.00379634
0 0 0.00421302
0 0 0.00439704
0 0 0.0046135
0 0 0.00498869
0 0 0.00521015
0 0 0.00528018
0 0 0.00530052
0 0 0.00529794
0 0 0.00527516
0 0 0.00520077
0 0 0.00497607
0 0 0.00459915
0 0 0.00438254
0 0 0.00419895
0 0 0.00378442
0 0 0.0032778
0 0 0.00273402
0 0 0.00218559
0 0 0.00165602
0 0 0.00116373
0 0 0.000957686
0 0 0.000791683
0 0 0.000530739
0 0 0.000320994
0 0 0.000150309
0 0 0
0 0 0
0 0 0.000163002
0 0 0.000351367
0 0 0.000589679
0 0 0.000893693
0 0 0.00108582
0 0 0.00127637
0 0 0.00177881
0 0 0.00234214
0 0 0.00293535
0 0 0.00352547
0 0 0.00406933
0 0 0.00446119
0 0 0.00462581
0 0 0.00489143
0 0 0.00536383
0 0 0.00560575
0 0 0.00561721
0 0 0.00563343
0 0 0.00563052
0 0 0.00561154
0 0 0.00559506
0 0 0.00534957
0 0 0.00487556
0 0 0.00460995
0 0 0.00444575
0 0 0.00405619
0 0 0.0035161
0 0 0.00293048
0 0 0.00234176
0 0 0.00178205
0 0 0.00128136
0 0 0.0010904
0 0 0.000897129
0 0 0.000591395
0 0 0.000352161
0 0 0.000163308
0 0 0
0 0 0
0 0 0.000149134
0 0 0.00032357
0 0 0.000550295
0 0 0.000855216
0 0 0.00107911
0 0 0.00111425
0 0 0.0013882
0 0 0.00178727
0 0 0.00223113
0 0 0.0026817
0 0 0.00311529
0 0 0.0035108
0 0 0.00368659
0 0 0.00384569
0 0 0.00410937
0 0 0.00429546
0 0 0.00440454
0 0 0.00443102
0 0 0.0044284
0 0 0.00439943
0 0 0.00428589
0 0 0.00409664
0 0 0.00383153
0 0 0.00367242
0 0 0.00349708
0 0 0.00310374
0 0 0.0026736
0 0 0.00222719
0 0 0.00178763
0 0 0.00139229
0 0 0.00112025
0 0 0.00108412
0 0 0.000858355
0 0 0.000551701
0 0 0.000324173
0 0 0.000149353
0 0 0
0 0 0
0 0 0.000110192
0 0 0.000240458
0 0 0.000414663
0 0 0.000668073
0 0 0.00090738
0 0 0.000902521
0 0 0.00107516
0 0 0.00136611
0 0 0.00169837
0 0 0.00203794
0 0 0.00236516
0 0 0.00266368
0 0 0.00279646
0 0 0.00291676
0 0 0.00311652
0 0 0.00325779
0 0 0.00334067
0 0 0.00336074
0 0 0.00335854
0 0 0.00333637
0 0 0.00324975
0 0 0.00310581
0 0 0.00290483
0 0 0.00278452
0 0 0.0026521
0 0 0.00235538
0 0 0.00203098
0 0 0.00169483
0 0 0.00136602
0 0 0.00107789
0 0 0.000906231
0 0 0.000910145
0 0 0.000670071
0 0 0.000415622
0 0 0.000240881
0 0 0.000110347
0 0 0
0 0 0
0 0 -1.12241e-08
0 0 -2.55047e-08
0 0 -4.86161e-08
0 0 -9.44176e-08
0 0 -1.49511e-07
0 0 -1.48378e-07
0 0 -1.33739e-07
0 0 -1.13622e-07
0 0 -8.9797e-08
0 0 -6.36344e-08
0 0 -3.6634e-08
0 0 -1.01738e-08
0 0 2.51456e-09
0 0 1.47231e-08
0 0 3.74542e-08
0 0 5.73851e-08
0 0 7.43683e-08
0 0 8.18271e-08
0 0 9.47382e-08
0 0 1.00269e-07
0 0 1.09593e-07
0 0 1.17022e-07
0 0 1.22917e-07
0 0 1.25335e-07
0 0 1.27353e-07
0 0 1.30522e-07
0 0 1.33111e-07
0 0 1.35397e-07
0 0 1.3754e-07
0 0 1.3952e-07
0 0 1.40972e-07
0 0 1.41086e-07
0 0 8.3528e-08
0 0 3.78963e-08
0 0 1.73825e-08
0 0 6.91216e-09
0 0 0
0 0 0
0 0 -0.000110214
0 0 -0.000240508
0 0 -0.000414759
0 0 -0.000668263
0 0 -0.000907681
0 0 -0.000902819
0 0 -0.00107543
0 0 -0.00136634
0 0 -0.00169856
0 0 -0.00203807
0 0 -0.00236524
0 0 -0.0026637
0 0 -0.00279646
0 0 -0.00291672
0 0 -0.00311644
0 0 -0.00325767
0 0 -0.00334051
0 0 -0.00336057
0 0 -0.00335834
0 0 -0.00333617
0 0 -0.00324953
0 0 -0.00310557
0 0 -0.00290459
0 0 -0.00278427
0 0 -0.00265185
0 0 -0.00235512
0 0 -0.00203072
0 0 -0.00169456
0 0 -0.00136574
0 0 -0.00107761
0 0 -0.000905947
0 0 -0.000909859
0 0 -0.0006699
0 0 -0.000415546
0 0 -0.000240846
0 0 -0.000110333
0 0 0
0 0 0
0 0 -0.000149155
0 0 -0.000323617
0 0 -0.000550386
0 0 -0.000855398
0 0 -0.00107941
0 0 -0.00111455
0 0 -0.00138847
0 0 -0.00178749
0 0 -0.00223131
0 0 -0.00268183
0 0 -0.00311536
0 0 -0.00351082
0 0 -0.00368659
0 0 -0.00384566
0 0 -0.00410929
0 0 -0.00429534
0 0 -0.00440439
0 0 -0.00443085
0 0 -0.0044282
0 0 -0.00439923
0 0 -0.00428567
0 0 -0.0040964
0 0 -0.00383128
0 0 -0.00367216
0 0 -0.00349682
0 0 -0.00310348
0 0 -0.00267334
0 0 -0.00222693
0 0 -0.00178735
0 0 -0.00139201
0 0 -0.00111997
0 0 -0.00108382
0 0 -0.000858189
0 0 -0.000551628
0 0 -0.00032414
0 0 -0.000149339
0 0 0
0 0 0
0 0 -0.000163021
0 0 -0.000351409
0 0 -0.000589755
0 0 -0.000893827
0 0 -0.001086
0 0 -0.00127655
0 0 -0.00177897
0 0 -0.00234228
0 0 -0.00293546
0 0 -0.00352554
0 0 -0.00406936
0 0 -0.0044612
0 0 -0.0046258
0 0 -0.0048914
0 0 -0.00536378
0 0 -0.00560567
0 0 -0.00561711
0 0 -0.00563332
0 0 -0.0056304
0 0 -0.00561141
0 0 -0.00559492
0 0 -0.00534942
0 0 -0.00487541
0 0 -0.00460979
0 0 -0.00444559
0 0 -0.00405604
0 0 -0.00351595
0 0 -0.00293032
0 0 -0.0023416
0 0 -0.00178189
0 0 -0.00128119
0 0 -0.00109023
0 0 -0.000897012
0 0 -0.000591338
0 0 -0.000352133
0 0 -0.000163296
0 0 0
0 0 0
0 0 -0.000149904
0 0 -0.000320036
0 0 -0.000528929
0 0 -0.000788639
0 0 -0.000954162
0 0 -0.00116037
0 0 -0.00165443
0 0 -0.00218696
0 0 -0.00273903
0 0 -0.00328653
0 0 -0.00379636
0 0 -0.00421302
0 0 -0.00439703
0 0 -0.00461349
0 0 -0.00498866
0 0 -0.00521011
0 0 -0.00528013
0 0 -0.00530047
0 0 -0.00529788
0 0 -0.00527509
0 0 -0.0052007
0 0 -0.00497599
0 0 -0.00459908
0 0 -0.00438246
0 0 -0.00419888
0 0 -0.00378435
0 0 -0.00327772
0 0 -0.00273395
0 0 -0.00218552
0 0 -0.00165594
0 0 -0.00116365
0 0 -0.000957614
0 0 -0.000791625
0 0 -0.000530707
0 0 -0.000320977
0 0 -0.000150301
0 0 0
0 0 0
0 0 -0.000112769
0 0 -0.00023912
0 0 -0.000391236
0 0 -0.000577581
0 0 -0.000696753
0 0 -0.000849766
0 0 -0.00120958
0 0 -0.00159492
0 0 -0.00199338
0 0 -0.00238928
0 0 -0.00276219
0 0 -0.003084
0 0 -0.00322678
0 0 -0.00337293
0 0 -0.00361963
0 0 -0.0037781
0 0 -0.00384997
0 0 -0.00386814
0 0 -0.00386629
0 0 -0.00384637
0 0 -0.0037714
0 0 -0.00361057
0 0 -0.0033625
0 0 -0.00321618
0 0 -0.00307371
0 0 -0.00275345
0 0 -0.00238278
0 0 -0.00198944
0 0 -0.00159348
0 0 -0.00121021
0 0 -0.000851804
0 0 -0.000699073
0 0 -0.000579726
0 0 -0.000392647
0 0 -0.000239926
0 0 -0.000113127
0 0 0
0 0 0
0 0 -6.01453e-05
0 0 -0.000127033
0 0 -0.000206671
0 0 -0.000303421
0 0 -0.00036518
0 0 -0.000444585
0 0 -0.000630154
0 0 -0.000828699
0 0 -0.00103399
0 0 -0.00123834
0 0 -0.00143214
0 0 -0.00160336
0 0 -0.00167925
0 0 -0.00175213
0 0 -0.00187319
0 0 -0.00195445
0 0 -0.0019967
0 0 -0.00200709
0 0 -0.00200614
0 0 -0.00199485
0 0 -0.00195102
0 0 -0.00186853
0 0 -0.00174672
0 0 -0.00167373
0 0 -0.00159801
0 0 -0.00142758
0 0 -0.00123493
0 0 -0.00103187
0 0 -0.000827833
0 0 -0.00063035
0 0 -0.000445549
0 0 -0.000366328
0 0 -0.000304518
0 0 -0.000207431
0 0 -0.000127485
0 0 -6.03515e-05
0 0 0
0 0 0
0 0 0
0 0 0
0 0 0
0 0 0
0 0 0
0 0 0
0 0 0
0 0 0
0 0 0
0 0 0
0 0 0
0 0 0
0 0 0
0 0 0
0 0 0
0 0 0
0 0 0
0 0 0
0 0 0
0 0 0
0 0 0
0 0 0
0 0 0
0 0 0
0 0 0
0 0 0
0 0 0
0 0 0
0 0 0
0 0 0
0 0 0
0 0 0
0 0 0
0 0 0
0 0 0
0 0 0
0 0 0
0 0 0
0 6.02211e-05 0
0 0.000127291 0
0 0.000207314 0
0 0.000304721 0
0 0.000366917 0
0 0.00044683 0
0 0.0006336 0
0 0.0008335 0
0 0.00104022 0
0 0.00124598 0
0 0.00144111 0
0 0.00161355 0
0 0.00168997 0
0 0.00176335 0
0 0.00188526 0
0 0.00196714 0
0 0.00200978 0
0 0.00202027 0
0 0.00201936 0
0 0.00200801 0
0 0.00196388 0
0 0.00188088 0
0 0.00175837 0
0 0.00168498 0
0 0.00160881 0
0 0.00143741 0
0 0.00124372 0
0 0.00103962 0
0 0.000834602 0
0 0.000636216 0
0 0.00045058 0
0 0.000370941 0
0 0.000308702 0
0 0.0002107 0
0 0.000129736 0
0 6.15001e-05 0
0 0 0
6.05262e-05 0 0
6.73179e-05 5.26486e-05 6.11254e-05
8.01661e-05 0.000112247 0.000129792
9.74136e-05 0.000185072 0.000212954
0.000124294 0.000275306 0.000315979
0.000159658 0.000333165 0.000383647
0.000186511 0.0004073 0.000471854
0.000199553 0.0005828 0.000677729
0.000206323 0.000770998 0.000898929
0.000205365 0.000965621 0.00112921
0.000194773 0.0011586 0.00136182
0.000172161 0.00133907 0.00158925
0.000152658 0.00149087 0.00180326
0.000146624 0.00155832 0.00189653
0.00012188 0.00163209 0.00197037
8.20147e-05 0.00175857 0.00208313
4.29292e-05 0.0018364 0.00216852
2.14146e-05 0.00186642 0.00222889
-3.6882e-07 0.00187431 0.00224337
-2.2048e-05 0.00187345 0.00224222
-4.33591e-05 0.00186475 0.00222667
-8.20782e-05 0.00183332 0.00216439
-0.000121455 0.00175446 0.00207751
-0.00014565 0.00162748 0.00196381
-0.000151149 0.00155373 0.00188984
-0.000170147 0.00148653 0.0017968
-0.000192369 0.00133569 0.00158382
-0.00020273 0.00115661 0.00135779
-0.000203637 0.000965266 0.00112675
-0.000197 0.000772334 0.000897965
-0.000184255 0.000585663 0.000678017
-0.000157897 0.000411295 0.000473049
-0.000123098 0.000337404 0.000385051
-9.66171e-05 0.000279468 0.000317291
-7.95709e-05 0.000188585 0.000213827
-6.68375e-05 0.000114773 0.0001303
-6.00982e-05 5.39671e-05 6.13539e-05
0 0 0
0.000113437 0 0
0.000127113 3.70656e-05 0.000115163
0.000153067 8.08856e-05 0.000245919
0.000187566 0.000137921 0.000407156
0.000239804 0.000211878 0.000611074
0.000307642 0.000258688 0.00074778
0.000361619 0.000312451 0.000926909
0.000387269 0.000448092 0.001347
0.000400419 0.000596784 0.00179789
0.000397822 0.000751903 0.00226601
0.000374757 0.000904971 0.00273802
0.000323569 0.00104327 0.00319953
0.000287246 0.00113937 0.00363487
0.000293914 0.00118114 0.00382512
0.00024823 0.00125197 0.00397583
0.000159878 0.00138129 0.00420653
7.31475e-05 0.0014449 0.00438089
3.75223e-05 0.00144344 0.00450381
-7.68337e-07 0.00144572 0.00453311
-3.88598e-05 0.00144503 0.00453081
-7.40942e-05 0.00144209 0.00449933
-0.000160081 0.00144237 0.00437257
-0.000247439 0.00137797 0.00419525
-0.000292063 0.00124839 0.00396273
-0.000284417 0.00117765 0.0038118
-0.000319766 0.00113606 0.00362201
-0.00037016 0.00104073 0.00318878
-0.000392746 0.000903637 0.00273014
-0.000395225 0.00075206 0.00226133
-0.000382334 0.000598558 0.00179629
-0.000357302 0.0004514 0.00134792
-0.000304359 0.0003169 0.000929528
-0.000237645 0.000263312 0.000750693
-0.000186157 0.000216344 0.000613686
-0.000152013 0.000141649 0.000408787
-0.000126257 8.35529e-05 0.000246824
-0.000112671 3.84543e-05 0.000115559
0 0 0
0.000150688 0 0
0.000171038 1.29241e-05 0.00015467
0.000210052 3.10837e-05 0.000333605
0.000261264 6.06428e-05 0.000561736
0.000332989 0.000105459 0.000862662
0.000414627 0.000132565 0.00107408
0.000496589 0.000117603 0.00135125
0.000535195 0.000127596 0.00200965
0.000554737 0.000160017 0.00271278
0.000550101 0.000202712 0.00343704
0.00051232 0.000246814 0.00416367
0.000419027 0.000282229 0.00487315
0.000370264 0.000258671 0.00554588
0.000435091 0.000239833 0.00584169
0.000377208 0.000289492 0.00607528
0.000223314 0.000387571 0.00643516
7.16997e-05 0.000408648 0.00670736
4.2219e-05 0.00035047 0.00689954
-1.18404e-06 0.000346455 0.00694462
-4.43199e-05 0.000346173 0.00694114
-7.32772e-05 0.000349912 0.00689278
-0.000223768 0.000407518 0.00669479
-0.000376147 0.000386181 0.0064182
-0.000432564 0.000288315 0.00605581
-0.000366557 0.000238852 0.00582198
-0.000413971 0.000257728 0.00552688
-0.000506045 0.000281551 0.00485735
-0.000543077 0.000246836 0.00415232
-0.000547485 0.000203734 0.0034307
-0.00052829 0.000162297 0.00271127
-0.000490659 0.000131314 0.00201203
-0.000410399 0.000122574 0.00135585
-0.000330419 0.000137635 0.00107865
-0.000259623 0.000110218 0.000866394
-0.000208799 6.46046e-05 0.000563788
-0.000169997 3.392e-05 0.000334646
-0.000149746 1.44018e-05 0.0001551
0 0 0
0.000163707 0 0
0.00018919 -2.80151e-05 0.000171885
0.000239399 -5.60681e-05 0.000376136
0.000305566 -7.92722e-05 0.000650403
0.000386399 -7.72145e-05 0.0010415
0.000383712 -1.32963e-05 0.0013497
0.00050542 -0.0003231 0.00173936
0.000566381 -0.000778107 0.00270505
0.000596188 -0.00110494 0.0037161
0.000592992 -0.00140202 0.00473788
0.000546598 -0.00167959 0.00575109
0.000394443 -0.00189872 0.00673363
0.000331676 -0.00189013 0.00767104
0.00053358 -0.00186722 0.0080884
0.000474591 -0.00207975 0.00841573
0.000243885 -0.00249634 0.00892973
1.3209e-05 -0.00260737 0.0093196
3.40189e-05 -0.00241172 0.00959602
-1.49004e-06 -0.0023911 0.00965822
-3.67219e-05 -0.00239048 0.00965361
-1.54051e-05 -0.00241051 0.00958704
-0.000244646 -0.00260495 0.00930286
-0.000473365 -0.00249302 0.0089073
-0.000530715 -0.00207604 0.00839041
-0.000327949 -0.00186353 0.00806295
-0.000389191 -0.00188636 0.00764654
-0.000539717 -0.00189513 0.00671336
-0.000585112 -0.00167658 0.00573692
-0.000587899 -0.00139952 0.00473076
-0.000558378 -0.00110251 0.00371596
-0.000498714 -0.000774746 0.00271058
-0.000379678 -0.000317529 0.00174735
-0.000384548 -7.26804e-06 0.00135574
-0.00030427 -7.22472e-05 0.00104544
-0.000238283 -7.5056e-05 0.000652095
-0.000188202 -5.29988e-05 0.000376855
-0.000162792 -2.64062e-05 0.000172148
0 0 0
0.000149717 0 0
0.00017512 -7.82112e-05 0.000158996
0.000227633 -0.000166808 0.000350994
0.000306233 -0.000271969 0.000618511
0.000449709 -0.000374956 0.00103162
7.30664e-05 -0.000344184 0.00144598
0.000277009 -0.000422526 0.0018909
0.000402065 -0.000622964 0.00315574
0.000446764 -0.000837438 0.00440673
0.000453354 -0.00105903 0.00563935
0.000436229 -0.00127951 0.00684686
0.000397996 -0.00149079 0.0080019
0.00035391 -0.00168351 0.00905707
0.000320426 -0.00176895 0.00952369
0.000265737 -0.00184605 0.00994279
0.000187915 -0.00197301 0.0106265
0.000110678 -0.002062 0.0111003
5.43699e-05 -0.00211402 0.0113749
-1.3807e-06 -0.00212672 0.0114416
-5.68699e-05 -0.00212583 0.0114364
-0.000112666 -0.0021123 0.0113648
-0.000188612 -0.00205877 0.0110814
-0.000264699 -0.00196871 0.0106012
-0.000317945 -0.00184126 0.0099147
-0.000350483 -0.00176417 0.00949564
-0.000393224 -0.00167888 0.00903003
-0.00043004 -0.00148694 0.00797947
-0.000446186 -0.00127687 0.00683146
-0.000439049 -0.00105784 0.00563227
-0.000394293 -0.000837726 0.00440817
-0.000270184 -0.000624417 0.00316474
-6.98085e-05 -0.000423769 0.00190385
-0.000449651 -0.000342064 0.00145193
-0.000305377 -0.000370867 0.00103461
-0.000226715 -0.000267592 0.000619655
-0.00017427 -0.000163476 0.000351441
-0.00014892 -7.64487e-05 0.000159146
0 0 0
0.000110611 0 0
0.000130758 -0.000110587 0.000117224
0.000174856 -0.000241187 0.000259786
0.000254325 -0.000415613 0.000460257
0.000479777 -0.000669084 0.000767748
-8.50163e-06 -0.000908339 0.00104829
0.00017377 -0.000901643 0.000527732
0.000291958 -0.00107207 0.000640817
0.000333188 -0.00136129 0.000876332
0.000340437 -0.00169194 0.00111553
0.000328054 -0.00202996 0.00135065
0.000299306 -0.00235572 0.00157597
0.000266323 -0.00265292 0.00178205
0.000241325 -0.00278512 0.00187319
0.000200468 -0.00290488 0.00195501
0.00014194 -0.00310374 0.00208822
8.3494e-05 -0.00324436 0.00217989
4.07266e-05 -0.00332683 0.00223214
-1.6565e-06 -0.00334678 0.00224435
-4.38177e-05 -0.00334452 0.0022415
-8.61508e-05 -0.00332241 0.00222659
-0.000143502 -0.0032361 0.00216948
-0.000200569 -0.00309272 0.00207433
-0.000240225 -0.00289258 0.00193951
-0.00026444 -0.00277278 0.00185765
-0.000296321 -0.00264093 0.00176698
-0.000323948 -0.0023455 0.00156314
-0.000335629 -0.00202255 0.00134124
-0.000328137 -0.0016879 0.00111012
-0.000287262 -0.00136054 0.000874953
-0.000170586 -0.00107352 0.00064283
8.89541e-06 -0.000901811 0.000530782
-0.000479071 -0.000904138 0.00104666
-0.000253564 -0.000664094 0.000768359
-0.000174152 -0.000410799 0.000460809
-0.000130133 -0.000237613 0.000260053
-0.000110033 -0.000108711 0.000117319
0 0 0
-1.20813e-08 0 0
-1.51082e-08 -0.000110587 -7.82539e-09
-2.38519e-08 -0.000241187 -1.51961e-08
-4.63487e-08 -0.000415613 -2.06544e-08
-1.10426e-07 -0.000669086 -1.9507e-08
2.29639e-09 -0.000908341 -7.62081e-09
1.492e-08 -0.000901645 -1.94816e-08
2.06015e-08 -0.00107207 -3.43472e-09
2.44604e-08 -0.0013613 -1.60729e-09
2.69108e-08 -0.00169194 -1.02962e-09
2.78281e-08 -0.00202996 -5.19288e-10
2.73374e-08 -0.00235572 -5.10387e-11
2.62714e-08 -0.00265292 3.40255e-10
2.53175e-08 -0.00278512 4.92659e-10
2.36314e-08 -0.00290488 6.24564e-10
2.08118e-08 -0.00310374 8.08699e-10
1.78287e-08 -0.00324436 8.99516e-10
1.57261e-08 -0.00332682 9.15127e-10
1.36784e-08 -0.00334678 9.00565e-10
1.17822e-08 -0.00334452 8.35318e-10
9.99607e-09 -0.00332241 7.92639e-10
8.03835e-09 -0.00323609 6.95807e-10
6.43991e-09 -0.00309272 5.78777e-10
5.32737e-09 -0.00289258 4.44495e-10
4.48429e-09 -0.00277278 3.71089e-10
3.56615e-09 -0.00264093 3.21809e-10
2.92915e-09 -0.0023455 2.22143e-10
2.57201e-09 -0.00202255 1.25254e-10
2.37825e-09 -0.0016879 4.17424e-11
2.16531e-09 -0.00136054 -2.69374e-11
1.58237e-09 -0.00107352 -1.06254e-10
3.06152e-10 -0.000901809 -1.76938e-09
-1.15082e-07 -0.000904134 -1.41109e-08
-4.56237e-08 -0.00066409 -2.33871e-10
-2.05184e-08 -0.000410798 5.22401e-09
-1.04796e-08 -0.000237613 4.60694e-09
-6.92281e-09 -0.000108711 2.44326e-09
0 0 0
-0.000110635 0 0
-0.000130788 -7.82091e-05 -0.000117239
-0.000174904 -0.000166803 -0.000259816
-0.00025442 -0.000271959 -0.000460297
-0.000479997 -0.00037494 -0.000767783
8.50533e-06 -0.000344187 -0.0010483
-0.000173742 -0.000422523 -0.000527783
-0.000291917 -0.000622962 -0.000640842
-0.000333139 -0.000837436 -0.000876349
-0.000340383 -0.00105903 -0.00111554
-0.000327999 -0.00127951 -0.00135066
-0.000299252 -0.00149079 -0.00157597
-0.000266271 -0.0016835 -0.00178204
-0.000241275 -0.00176895 -0.00187318
-0.000200421 -0.00184604 -0.00195501
-0.000141899 -0.00197301 -0.00208821
-8.34594e-05 -0.002062 -0.00217988
-4.06961e-05 -0.00211402 -0.00223212
1.68288e-06 -0.00212672 -0.00224434
4.38403e-05 -0.00212583 -0.00224149
8.61699e-05 -0.0021123 -0.00222658
0.000143517 -0.00205877 -0.00216947
0.000200581 -0.00196871 -0.00207432
0.000240235 -0.00184126 -0.00193951
0.000264448 -0.00176417 -0.00185765
0.000296327 -0.00167888 -0.00176697
0.000323953 -0.00148695 -0.00156314
0.000335634 -0.00127687 -0.00134124
0.000328141 -0.00105784 -0.00111013
0.000287267 -0.000837727 -0.000874955
0.000170591 -0.000624418 -0.000642833
-8.89091e-06 -0.000423765 -0.000530789
0.000478841 -0.000342048 -0.00104669
0.000253469 -0.000370879 -0.000768361
0.00017411 -0.0002676 -0.000460799
0.000130112 -0.00016348 -0.000260044
0.000110019 -7.645e-05 -0.000117314
0 0 0
-0.000149739 0 0
-0.000175149 -2.80104e-05 -0.00015901
-0.000227678 -5.60557e-05 -0.000351022
-0.000306325 -7.92408e-05 -0.000618548
-0.000449949 -7.71194e-05 -0.00103165
-7.30584e-05 -1.30534e-05 -0.00144599
-0.000276984 -0.000322874 -0.00189091
-0.000402026 -0.000777895 -0.00315574
-0.000446717 -0.00110476 -0.00440673
-0.000453302 -0.00140187 -0.00563934
-0.000436176 -0.00167948 -0.00684685
-0.000397944 -0.00189865 -0.00800188
-0.000353861 -0.00189011 -0.00905705
-0.000320377 -0.00186722 -0.00952367
-0.000265693 -0.00207976 -0.00994277
-0.000187876 -0.00249639 -0.0106265
-0.000110645 -0.00260745 -0.0111003
-5.43411e-05 -0.00241183 -0.0113749
1.40561e-06 -0.00239121 -0.0114416
5.68912e-05 -0.00239062 -0.0114364
0.000112684 -0.00241065 -0.0113648
0.000188626 -0.00260512 -0.0110814
0.000264711 -0.0024932 -0.0106012
0.000317955 -0.00207623 -0.00991471
0.00035049 -0.00186371 -0.00949565
0.00039323 -0.00188655 -0.00903004
0.000430045 -0.00189534 -0.00797949
0.000446191 -0.00167679 -0.00683148
0.000439053 -0.00139974 -0.00563229
0.000394298 -0.00110273 -0.0044082
0.000270191 -0.000774975 -0.00316476
6.98253e-05 -0.000317759 -0.00190387
0.000449394 -7.5253e-06 -0.00145196
0.000305284 -7.23446e-05 -0.00103461
0.000226675 -7.50858e-05 -0.000619645
0.00017425 -5.30094e-05 -0.000351433
0.000148907 -2.64099e-05 -0.000159142
0 0 0
-0.000163727 0 0
-0.000189214 1.29295e-05 -0.000171898
-0.000239435 3.10967e-05 -0.000376161
-0.000305626 6.06706e-05 -0.000650438
-0.000386492 0.000105519 -0.00104154
-0.000383721 0.000132657 -0.00134974
-0.000505402 0.000117696 -0.00173939
-0.000566358 0.000127678 -0.00270508
-0.00059616 0.000160088 -0.00371612
-0.000592961 0.000202768 -0.00473789
-0.000546566 0.000246854 -0.00575109
-0.000394413 0.000282253 -0.00673362
-0.000331646 0.000258678 -0.00767102
-0.000533551 0.000239832 -0.00808838
-0.000474565 0.000289484 -0.00841571
-0.000243862 0.000387549 -0.0089297
-1.31873e-05 0.000408613 -0.00931958
-3.40014e-05 0.000350424 -0.009596
1.50432e-06 0.000346403 -0.00965819
3.67327e-05 0.000346113 -0.00965358
1.54106e-05 0.000349848 -0.00958702
0.000244654 0.00040745 -0.00930284
0.000473377 0.000386108 -0.00890728
0.000530726 0.000288236 -0.0083904
0.000327946 0.000238769 -0.00806294
0.000389187 0.000257645 -0.00764653
0.000539717 0.000281469 -0.00671335
0.000585113 0.000246752 -0.00573692
0.000587901 0.000203648 -0.00473076
0.000558381 0.00016221 -0.00371596
0.00049872 0.000131225 -0.00271058
0.000379668 0.00012248 -0.00174736
0.00038445 0.000137543 -0.00135575
0.000304211 0.000110159 -0.00104544
0.000238254 6.45796e-05 -0.000652085
0.000188186 3.39094e-05 -0.000376847
0.000162781 1.43979e-05 -0.000172143
0 0 0
-0.000150703 0 0
-0.000171055 3.70705e-05 -0.00015468
-0.000210073 8.08965e-05 -0.000333625
-0.000261291 0.00013794 -0.000561765
-0.000333019 0.000211912 -0.000862696
-0.000414633 0.000258731 -0.00107411
-0.000496581 0.000312495 -0.00135128
-0.000535184 0.000448131 -0.00200968
-0.000554724 0.000596818 -0.0027128
-0.000550086 0.000751928 -0.00343705
-0.000512305 0.000904988 -0.00416368
-0.000419013 0.00104328 -0.00487315
-0.00037025 0.00113937 -0.00554587
-0.000435078 0.00118114 -0.00584168
-0.000377197 0.00125196 -0.00607526
-0.000223305 0.00138128 -0.00643514
-7.16903e-05 0.00144488 -0.00670734
-4.22117e-05 0.00144342 -0.00689952
1.18951e-06 0.00144569 -0.00694459
4.43234e-05 0.001445 -0.00694112
7.32783e-05 0.00144206 -0.00689276
0.000223771 0.00144234 -0.00669477
0.000376152 0.00137794 -0.00641818
0.000432568 0.00124836 -0.00605579
0.000366554 0.00117761 -0.00582196
0.000413968 0.00113602 -0.00552686
0.000506044 0.00104069 -0.00485734
0.000543077 0.000903598 -0.0041523
0.000547485 0.000752021 -0.00343068
0.000528291 0.000598519 -0.00271126
0.00049066 0.00045136 -0.00201202
0.000410391 0.000316858 -0.00135584
0.000330389 0.000263272 -0.00107864
0.000259598 0.000216314 -0.000866384
0.000208783 0.000141634 -0.000563779
0.000169987 8.35453e-05 -0.000334639
0.000149739 3.84513e-05 -0.000155097
0 0 0
-0.000113446 0 0
-0.000127123 5.2653e-05 -0.00011517
-0.000153078 0.000112256 -0.000245932
-0.000187579 0.000185087 -0.000407175
-0.000239815 0.000275328 -0.000611098
-0.000307644 0.00033319 -0.000747804
-0.000361616 0.000407326 -0.000926934
-0.000387264 0.000582823 -0.00134702
-0.000400413 0.000771018 -0.00179791
-0.000397815 0.000965635 -0.00226602
-0.00037475 0.00115861 -0.00273803
-0.000323562 0.00133907 -0.00319953
-0.00028724 0.00149087 -0.00363486
-0.000293909 0.00155832 -0.00382511
-0.000248225 0.00163208 -0.00397581
-0.000159874 0.00175856 -0.00420652
-7.31436e-05 0.00183639 -0.00438088
-3.75195e-05 0.0018664 -0.00450379
7.70253e-07 0.00187429 -0.0045331
3.88608e-05 0.00187343 -0.00453079
7.40941e-05 0.00186473 -0.00449931
0.000160082 0.0018333 -0.00437256
0.000247441 0.00175444 -0.00419523
0.000292065 0.00162746 -0.00396272
0.000284415 0.00155371 -0.00381179
0.000319763 0.0014865 -0.00362199
0.000370159 0.00133567 -0.00318876
0.000392746 0.00115659 -0.00273013
0.000395225 0.000965245 -0.00226132
0.000382334 0.000772313 -0.00179628
0.000357302 0.000585643 -0.00134791
0.000304355 0.000411274 -0.000929518
0.000237634 0.000337385 -0.000750684
0.000186147 0.000279452 -0.000613678
0.000152005 0.000188575 -0.00040878
0.000126252 0.000114768 -0.00024682
0.000112667 5.39648e-05 -0.000115557
0 0 0
-6.05307e-05 0 0
-6.73227e-05 6.02252e-05 -6.11288e-05
-8.01712e-05 0.000127299 -0.000129799
-9.7419e-05 0.000207327 -0.000212964
-0.000124299 0.000304738 -0.000315991
-0.000159659 0.000366937 -0.000383659
-0.00018651 0.000446849 -0.000471867
-0.000199551 0.000633618 -0.00067774
-0.00020632 0.000833514 -0.000898938
-0.000205362 0.00104023 -0.00112922
-0.00019477 0.00124598 -0.00136182
-0.000172158 0.00144111 -0.00158924
-0.000152656 0.00161354 -0.00180326
-0.000146622 0.00168997 -0.00189652
-0.000121879 0.00176334 -0.00197036
-8.20132e-05 0.00188525 -0.00208312
-4.29279e-05 0.00196713 -0.00216851
-2.14136e-05 0.00200976 -0.00222888
3.69371e-07 0.00202026 -0.00224336
2.20482e-05 0.00201935 -0.00224221
4.33589e-05 0.002008 -0.00222666
8.20783e-05 0.00196386 -0.00216438
0.000121456 0.00188086 -0.0020775
0.00014565 0.00175836 -0.00196381
0.000151148 0.00168496 -0.00188983
0.000170146 0.0016088 -0.00179679
0.000192369 0.00143739 -0.00158381
0.00020273 0.0012437 -0.00135778
0.000203637 0.00103961 -0.00112674
0.000197 0.000834588 -0.000897959
0.000184254 0.000636202 -0.000678011
0.000157896 0.000450566 -0.000473044
0.000123094 0.000370928 -0.000385046
9.66132e-05 0.000308691 -0.000317287
7.95678e-05 0.000210693 -0.000213824
6.68351e-05 0.000129732 -0.000130297
6.00962e-05 6.14981e-05 -6.13528e-05
0 0 0
0 0 0
0 0 0
0 0 0
0 0 0
0 0 0
0 0 0
0 0 0
0 0 0
0 0 0
0 0 0
0 0 0
0 0 0
0 0 0
0 0 0
0 0 0
0 0 0
0 0 0
0 0 0
0 0 0
0 0 0
0 0 0
0 0 0
0 0 0
0 0 0
0 0 0
0 0 0
0 0 0
0 0 0
0 0 0
0 0 0
0 0 0
0 0 0
0 0 0
0 0 0
0 0 0
0 0 0
0 0 0
0 0 0
0 0 0
0 0.000223156 0
0 0.0004736 0
0 0.00077628 0
0 0.00115015 0
0 0.001394 0
0 0.00171054 0
0 0.00244968 0
0 0.00324326 0
0 0.00406805 0
0 0.00489805 0
0 0.00570341 0
0 0.00644995 0
0 0.00677659 0
0 0.00704827 0
0 0.00747319 0
0 0.00778447 0
0 0.00798912 0
0 0.00803851 0
0 0.00803462 0
0 0.00798159 0
0 0.00777055 0
0 0.00745445 0
0 0.0070268 0
0 0.006755 0
0 0.00642948 0
0 0.00568741 0
0 0.0048881 0
0 0.00406502 0
0 0.0032472 0
0 0.00245984 0
0 0.00172542 0
0 0.00141002 0
0 0.00116597 0
0 0.000789644 0
0 0.000483224 0
0 0.000228182 0
0 0 0
0.000224763 0 0
0.000251838 0.000196511 6.04729e-05
0.000303679 0.000421778 0.000129763
0.000374368 0.000703557 0.000216047
0.0004878 0.00106453 0.000325558
0.000632948 0.00130773 0.000397558
0.000738659 0.00162581 0.000490166
0.000792765 0.00237613 0.000707306
0.000823794 0.00318082 0.000946712
0.000828973 0.00401374 0.00120393
0.000804466 0.00484916 0.00147344
0.000745935 0.00565764 0.00174787
0.000652989 0.00640305 0.00201815
0.000543285 0.00673065 0.00213146
0.000425255 0.00701078 0.00220126
0.000312202 0.00745411 0.00228408
0.000206187 0.00777088 0.00235041
0.000100755 0.00796872 0.00241023
-1.45876e-06 0.00801643 0.00242356
-0.000103227 0.00801256 0.00242179
-0.000207786 0.00796121 0.00240678
-0.00031234 0.00775698 0.00234403
-0.000423437 0.0074355 0.00227529
-0.000539104 0.0069897 0.00219078
-0.000646361 0.00670955 0.00212069
-0.000737157 0.00638307 0.00200784
-0.000794168 0.00564208 0.00173945
-0.000817806 0.00483971 0.00146734
-0.000812469 0.00401134 0.00120026
-0.000781999 0.00318563 0.000945271
-0.000729079 0.00238742 0.000707671
-0.000625473 0.00164195 0.000491808
-0.00048281 0.00132488 0.000399491
-0.000371053 0.00108128 0.000327348
-0.000301188 0.000717559 0.000217203
-0.000249837 0.000431795 0.000130419
-0.000222992 0.000201725 6.07637e-05
0 0 0
0.000422717 0 0
0.000478301 0.000141847 0.000113763
0.000586203 0.000313909 0.000245869
0.000735502 0.000549768 0.000413986
0.000973918 0.000883927 0.000632413
0.00126855 0.00113129 0.000778933
0.00148803 0.00144822 0.00096812
0.00159616 0.00222345 0.00141475
0.00165526 0.00304903 0.00190845
0.00166291 0.00389145 0.00244035
0.00161161 0.00472761 0.0030009
0.00149032 0.00553102 0.00357657
0.0013075 0.00626364 0.00414728
0.00110309 0.00658845 0.00438785
0.000868563 0.00688169 0.00453849
0.000629572 0.00735782 0.00471644
0.000405264 0.00768402 0.00485413
0.000197864 0.00786831 0.00497525
-3.16742e-06 0.00791292 0.00500184
-0.00020332 0.00790919 0.00499807
-0.000408986 0.00786106 0.00496792
-0.000630254 0.00767055 0.00484054
-0.000865175 0.00733999 0.00469778
-0.001095 0.00686202 0.00451637
-0.00129474 0.00656899 0.00436522
-0.00147329 0.00624524 0.00412565
-0.00159144 0.00551676 0.00355905
-0.00164091 0.00471938 0.00298837
-0.00163285 0.0038904 0.00243301
-0.00157485 0.00305557 0.00190587
-0.00146921 0.00223707 0.00141593
-0.0012543 0.00146707 0.000971751
-0.000964714 0.00115072 0.000782984
-0.00072951 0.000902446 0.000636011
-0.00058172 0.000564922 0.000416159
-0.000474701 0.000324632 0.000247041
-0.000419526 0.000147401 0.000114265
0 0 0
0.000565714 0 0
0.000651208 5.78276e-05 0.000152429
0.000822337 0.000142766 0.000333625
0.00106919 0.000295197 0.000573475
0.0014676 0.000581362 0.000899781
0.001901 0.000867941 0.00112835
0.00226142 0.00115545 0.00142108
0.00241955 0.00199001 0.00212418
0.00249534 0.00284823 0.00290289
0.00249674 0.00368871 0.00374323
0.00241286 0.0045012 0.00463558
0.00222112 0.00526869 0.00556372
0.00195567 0.00595448 0.00649297
0.00168842 0.00626135 0.00688919
0.00134399 0.0065624 0.00714844
0.00095575 0.00707381 0.00745754
0.000590209 0.00741038 0.00767946
0.000288226 0.00757788 0.0078604
-5.25658e-06 0.00761981 0.00789909
-0.000297472 0.00761662 0.00789287
-0.000596932 0.00757164 0.00784831
-0.000957637 0.00739858 0.00765698
-0.00133938 0.00705853 0.00742682