<?xml version="1.0"?>
<VTKFile type="RectilinearGrid" version="0.1" byte_order="LittleEndian">
<RectilinearGrid WholeExtent="0 37 0 14 0 34">
<Piece Extent="0 37 0 14 0 34">
<PointData>
<DataArray type="Float32" Name="MVP" NumberOfComponents="3" format="ascii">
0 0 0
0 0 0
0 0 0
0 0 0
0 0 0
0 0 0
0 0 0
0 0 0
0 0 0
0 0 0
0 0 0
0 0 0
0 0 0
0 0 0
0 0 0
0 0 0
0 0 0
0 0 0
0 0 0
0 0 0
0 0 0
0 0 0
0 0 0
0 0 0
0 0 0
0 0 0
0 0 0
0 0 0
0 0 0
0 0 0
0 0 0
0 0 0
0 0 0
0 0 0
0 0 0
0 0 0
0 0 0
0 0 0
0 0 0
0 0 4.36502e-06
0 0 9.19622e-06
0 0 1.49003e-05
0 0 2.1754e-05
0 0 2.61101e-05
0 0 3.1707e-05
0 0 4.46456e-05
0 0 5.83212e-05
0 0 7.23585e-05
0 0 8.62717e-05
0 0 9.94061e-05
0 0 0.000110895
0 0 0.000115955
0 0 0.000120858
0 0 0.000128907
0 0 0.000134041
0 0 0.000136339
0 0 0.000136757
0 0 0.000136133
0 0 0.000135125
0 0 0.00013178
0 0 0.000125843
0 0 0.00011731
0 0 0.000112335
0 0 0.000107357
0 0 9.63262e-05
0 0 8.38543e-05
0 0 7.0698e-05
0 0 5.7408e-05
0 0 4.43876e-05
0 0 3.19681e-05
0 0 2.65258e-05
0 0 2.21795e-05
0 0 1.519e-05
0 0 9.36203e-06
0 0 4.43768e-06
0 0 0
0 0 0
0 0 8.19064e-06
0 0 1.73153e-05
0 0 2.81879e-05
0 0 4.13226e-05
0 0 4.96848e-05
0 0 6.0459e-05
0 0 8.5466e-05
0 0 0.000111857
0 0 0.000138932
0 0 0.00016572
0 0 0.000190822
0 0 0.000212182
0 0 0.000221604
0 0 0.000231446
0 0 0.000247916
0 0 0.000257903
0 0 0.00026157
0 0 0.000262231
0 0 0.000261039
0 0 0.000259248
0 0 0.000253571
0 0 0.000242064
0 0 0.000224722
0 0 0.000214767
0 0 0.0002055
0 0 0.000185001
0 0 0.00016118
0 0 0.000135864
0 0 0.00011024
0 0 8.51046e-05
0 0 6.10548e-05
0 0 5.05446e-05
0 0 4.21615e-05
0 0 2.87168e-05
0 0 1.75986e-05
0 0 8.30889e-06
0 0 0
0 0 0
0 0 1.08971e-05
0 0 2.31643e-05
0 0 3.79935e-05
0 0 5.60078e-05
0 0 6.73801e-05
0 0 8.18306e-05
0 0 0.000115864
0 0 0.000151823
0 0 0.000188783
0 0 0.000225291
0 0 0.000259062
0 0 0.000285964
0 0 0.000297764
0 0 0.000312339
0 0 0.000337519
0 0 0.000351355
0 0 0.00035409
0 0 0.000354636
0 0 0.000353041
0 0 0.00035098
0 0 0.000345518
0 0 0.000329679
0 0 0.000303471
0 0 0.00028881
0 0 0.000277199
0 0 0.000251402
0 0 0.000219383
0 0 0.000184921
0 0 0.000149985
0 0 0.000115743
0 0 8.29124e-05
0 0 6.87166e-05
0 0 5.719e-05
0 0 3.86304e-05
0 0 2.34587e-05
0 0 1.10057e-05
0 0 0
0 0 0
0 0 1.18545e-05
0 0 2.53684e-05
0 0 4.19786e-05
0 0 6.2062e-05
0 0 7.406e-05
0 0 8.70497e-05
0 0 0.000120621
0 0 0.000157123
0 0 0.000195238
0 0 0.000233044
0 0 0.000267565
0 0 0.000290801
0 0 0.000300322
0 0 0.00031806
0 0 0.000349695
0 0 0.000364336
0 0 0.000362092
0 0 0.000362228
0 0 0.000360657
0 0 0.000359019
0 0 0.000358468
0 0 0.000341876
0 0 0.000309493
0 0 0.000291809
0 0 0.000282402
0 0 0.00026014
0 0 0.000227448
0 0 0.000191847
0 0 0.000155959
0 0 0.000121341
0 0 8.88764e-05
0 0 7.584e-05
0 0 6.33337e-05
0 0 4.24662e-05
0 0 2.55092e-05
0 0 1.18774e-05
0 0 0
0 0 0
0 0 1.0826e-05
0 0 2.32551e-05
0 0 3.87279e-05
0 0 5.76402e-05
0 0 6.88655e-05
0 0 7.02208e-05
0 0 8.59412e-05
0 0 0.000108969
0 0 0.000134637
0 0 0.000160763
0 0 0.000185941
0 0 0.000208885
0 0 0.000219043
0 0 0.000228195
0 0 0.000243194
0 0 0.000253462
0 0 0.000259053
0 0 0.000260169
0 0 0.000259109
0 0 0.000256988
0 0 0.000249597
0 0 0.000238055
0 0 0.000222478
0 0 0.000213317
0 0 0.000203331
0 0 0.000181231
0 0 0.000157384
0 0 0.00013288
0 0 0.000108935
0 0 8.75182e-05
0 0 7.28378e-05
0 0 7.09717e-05
0 0 5.88091e-05
0 0 3.90878e-05
0 0 2.33161e-05
0 0 1.08126e-05
0 0 0
0 0 0
0 0 7.97303e-06
0 0 1.71827e-05
0 0 2.88372e-05
0 0 4.39248e-05
0 0 5.56092e-05
0 0 5.28615e-05
0 0 6.07681e-05
0 0 7.56193e-05
0 0 9.28882e-05
0 0 0.000110657
0 0 0.000127817
0 0 0.000143455
0 0 0.000150386
0 0 0.000156641
0 0 0.000166931
0 0 0.000174015
0 0 0.000177897
0 0 0.000178681
0 0 0.000177975
0 0 0.000176523
0 0 0.000171443
0 0 0.000163513
0 0 0.00015284
0 0 0.000146579
0 0 0.000139762
0 0 0.000124688
0 0 0.000108421
0 0 9.17424e-05
0 0 7.56159e-05
0 0 6.1762e-05
0 0 5.42558e-05
0 0 5.65119e-05
0 0 4.46435e-05
0 0 2.90952e-05
0 0 1.72326e-05
0 0 7.96592e-06
0 0 0
0 0 0
0 0 -1.28929e-08
0 0 -2.80183e-08
0 0 -4.93842e-08
0 0 -8.61756e-08
0 0 -1.25675e-07
0 0 -1.21639e-07
0 0 -1.10669e-07
0 0 -9.66553e-08
0 0 -8.01102e-08
0 0 -6.17547e-08
0 0 -4.23766e-08
0 0 -2.27328e-08
0 0 -1.30478e-08
0 0 -3.51807e-09
0 0 1.48829e-08
0 0 3.2042e-08
0 0 4.77372e-08
0 0 5.49911e-08
0 0 6.82923e-08
0 0 7.43418e-08
0 0 8.52587e-08
0 0 9.47021e-08
0 0 1.02782e-07
0 0 1.06348e-07
0 0 1.09603e-07
0 0 1.15254e-07
0 0 1.19906e-07
0 0 1.23674e-07
0 0 1.26648e-07
0 0 1.28898e-07
0 0 1.3048e-07
0 0 1.30988e-07
0 0 8.12903e-08
0 0 4.03072e-08
0 0 2.02674e-08
0 0 8.63395e-09
0 0 0
0 0 0
0 0 -7.99831e-06
0 0 -1.72377e-05
0 0 -2.89349e-05
0 0 -4.4098e-05
0 0 -5.58628e-05
0 0 -5.31076e-05
0 0 -6.09925e-05
0 0 -7.58151e-05
0 0 -9.30502e-05
0 0 -0.000110781
0 0 -0.000127902
0 0 -0.0001435
0 0 -0.000150411
0 0 -0.000156648
0 0 -0.0001669
0 0 -0.000173949
0 0 -0.0001778
0 0 -0.000178569
0 0 -0.000177837
0 0 -0.000176372
0 0 -0.000171271
0 0 -0.000163322
0 0 -0.000152633
0 0 -0.000146365
0 0 -0.000139542
0 0 -0.000124456
0 0 -0.000108181
0 0 -9.14943e-05
0 0 -7.53619e-05
0 0 -6.15036e-05
0 0 -5.39943e-05
0 0 -5.62494e-05
0 0 -4.44791e-05
0 0 -2.90146e-05
0 0 -1.71923e-05
0 0 -7.94882e-06
0 0 0
0 0 0
0 0 -1.08501e-05
0 0 -2.33074e-05
0 0 -3.88206e-05
0 0 -5.78062e-05
0 0 -6.91206e-05
0 0 -7.04703e-05
0 0 -8.61691e-05
0 0 -0.000109167
0 0 -0.000134801
0 0 -0.000160888
0 0 -0.000186026
0 0 -0.00020893
0 0 -0.000219068
0 0 -0.000228201
0 0 -0.000243162
0 0 -0.000253395
0 0 -0.000258954
0 0 -0.000260055
0 0 -0.000258969
0 0 -0.000256836
0 0 -0.000249423
0 0 -0.000237863
0 0 -0.00022227
0 0 -0.000213102
0 0 -0.00020311
0 0 -0.000180998
0 0 -0.000157143
0 0 -0.000132631
0 0 -0.00010868
0 0 -8.72591e-05
0 0 -7.25756e-05
0 0 -7.07085e-05
0 0 -5.86519e-05
0 0 -3.90116e-05
0 0 -2.32779e-05
0 0 -1.07963e-05
0 0 0
0 0 0
0 0 -1.18761e-05
0 0 -2.54147e-05
0 0 -4.20574e-05
0 0 -6.21903e-05
0 0 -7.42233e-05
0 0 -8.72154e-05
0 0 -0.00012077
0 0 -0.000157252
0 0 -0.000195344
0 0 -0.000233125
0 0 -0.000267618
0 0 -0.000290828
0 0 -0.000300337
0 0 -0.000318061
0 0 -0.000349671
0 0 -0.00036429
0 0 -0.000362025
0 0 -0.00036215
0 0 -0.000360563
0 0 -0.000358918
0 0 -0.000358356
0 0 -0.000341752
0 0 -0.000309355
0 0 -0.000291665
0 0 -0.000282257
0 0 -0.000259993
0 0 -0.000227297
0 0 -0.000191693
0 0 -0.000155802
0 0 -0.00012118
0 0 -8.87125e-05
0 0 -7.56829e-05
0 0 -6.32182e-05
0 0 -4.24037e-05
0 0 -2.54763e-05
0 0 -1.18631e-05
0 0 0
0 0 0
0 0 -1.09129e-05
0 0 -2.31971e-05
0 0 -3.80461e-05
0 0 -5.60845e-05
0 0 -6.74685e-05
0 0 -8.19207e-05
0 0 -0.000115946
0 0 -0.000151894
0 0 -0.00018884
0 0 -0.000225334
0 0 -0.000259089
0 0 -0.000285977
0 0 -0.000297769
0 0 -0.000312338
0 0 -0.000337504
0 0 -0.000351328
0 0 -0.000354051
0 0 -0.000354592
0 0 -0.000352989
0 0 -0.000350925
0 0 -0.000345459
0 0 -0.000329613
0 0 -0.000303399
0 0 -0.000288734
0 0 -0.000277122
0 0 -0.000251326
0 0 -0.000219306
0 0 -0.000184843
0 0 -0.000149906
0 0 -0.000115663
0 0 -8.2832e-05
0 0 -6.86405e-05
0 0 -5.71274e-05
0 0 -3.85919e-05
0 0 -2.34368e-05
0 0 -1.09957e-05
0 0 0
0 0 0
0 0 -8.20084e-06
0 0 -1.73361e-05
0 0 -2.822e-05
0 0 -4.13665e-05
0 0 -4.97334e-05
0 0 -6.05082e-05
0 0 -8.55112e-05
0 0 -0.000111896
0 0 -0.000138964
0 0 -0.000165743
0 0 -0.000190836
0 0 -0.000212188
0 0 -0.000221606
0 0 -0.000231444
0 0 -0.000247907
0 0 -0.000257888
0 0 -0.000261548
0 0 -0.000262207
0 0 -0.00026101
0 0 -0.000259218
0 0 -0.000253539
0 0 -0.000242029
0 0 -0.000224683
0 0 -0.000214727
0 0 -0.00020546
0 0 -0.000184961
0 0 -0.00016114
0 0 -0.000135824
0 0 -0.0001102
0 0 -8.50639e-05
0 0 -6.10145e-05
0 0 -5.05064e-05
0 0 -4.21286e-05
0 0 -2.86949e-05
0 0 -1.75854e-05
0 0 -8.30272e-06
0 0 0
0 0 0
0 0 -4.37e-06
0 0 -9.20627e-06
0 0 -1.49155e-05
0 0 -2.17742e-05
0 0 -2.61321e-05
0 0 -3.17292e-05
0 0 -4.4666e-05
0 0 -5.83389e-05
0 0 -7.23727e-05
0 0 -8.62819e-05
0 0 -9.94123e-05
0 0 -0.000110897
0 0 -0.000115956
0 0 -0.000120857
0 0 -0.000128902
0 0 -0.000134033
0 0 -0.000136329
0 0 -0.000136746
0 0 -0.00013612
0 0 -0.000135111
0 0 -0.000131766
0 0 -0.000125827
0 0 -0.000117293
0 0 -0.000112317
0 0 -0.00010734
0 0 -9.63087e-05
0 0 -8.38367e-05
0 0 -7.06804e-05
0 0 -5.73904e-05
0 0 -4.43701e-05
0 0 -3.19509e-05
0 0 -2.65095e-05
0 0 -2.21652e-05
0 0 -1.51801e-05
0 0 -9.35585e-06
0 0 -4.43474e-06
0 0 0
0 0 0
0 0 0
0 0 0
0 0 0
0 0 0
0 0 0
0 0 0
0 0 0
0 0 0
0 0 0
0 0 0
0 0 0
0 0 0
0 0 0
0 0 0
0 0 0
0 0 0
0 0 0
0 0 0
0 0 0
0 0 0
0 0 0
0 0 0
0 0 0
0 0 0
0 0 0
0 0 0
0 0 0
0 0 0
0 0 0
0 0 0
0 0 0
0 0 0
0 0 0
0 0 0
0 0 0
0 0 0
0 0 0
0 0 0
0 4.56143e-06 0
0 9.69211e-06 0
0 1.58894e-05 0
0 2.34911e-05 0
0 2.83202e-05 0
0 3.44507e-05 0
0 4.8614e-05 0
0 6.36341e-05 0
0 7.90555e-05 0
0 9.43276e-05 0
0 0.000108741 0
0 0.000121379 0
0 0.000126949 0
0 0.000132315 0
0 0.000141133 0
0 0.000146811 0
0 0.000149417 0
0 0.000149903 0
0 0.000149242 0
0 0.000148133 0
0 0.000144431 0
0 0.000137944 0
0 0.000128694 0
0 0.000123309 0
0 0.000117893 0
0 0.00010591 0
0 9.24308e-05 0
0 7.82546e-05 0
0 6.39687e-05 0
0 4.99992e-05 0
0 3.66763e-05 0
0 3.07881e-05 0
0 2.59951e-05 0
0 1.80973e-05 0
0 1.13259e-05 0
0 5.42782e-06 0
0 0 0
4.74587e-06 0 0
5.26127e-06 3.9728e-06 4.4573e-06
6.22866e-06 8.5205e-06 9.45362e-06
7.50495e-06 1.415e-05 1.54841e-05
9.46053e-06 2.11763e-05 2.29228e-05
1.19993e-05 2.56699e-05 2.78016e-05
1.3813e-05 3.14041e-05 3.40967e-05
1.45848e-05 4.47541e-05 4.85379e-05
1.49394e-05 5.88555e-05 6.38973e-05
1.47836e-05 7.33026e-05 7.9806e-05
1.39587e-05 8.75506e-05 9.58533e-05
1.22576e-05 0.000100806 0.000111552
1.08424e-05 0.000111834 0.000126334
1.0495e-05 0.000116708 0.000132734
8.68615e-06 0.000122111 0.000137694
5.70194e-06 0.000131306 0.000145053
2.79483e-06 0.000136703 0.000150444
1.28165e-06 0.00013838 0.000154053
-2.31546e-07 0.000138689 0.000154728
-1.67484e-06 0.000138082 0.000153948
-3.05197e-06 0.000137198 0.000152538
-5.70729e-06 0.000134504 0.000147639
-8.35757e-06 0.000128378 0.00014124
-9.8099e-06 0.000118841 0.000133239
-9.83194e-06 0.000113444 0.000128182
-1.09303e-05 0.000108707 0.00012192
-1.23807e-05 9.82685e-05 0.000107786
-1.30536e-05 8.58907e-05 9.29456e-05
-1.31571e-05 7.26926e-05 7.78387e-05
-1.28468e-05 5.93523e-05 6.28355e-05
-1.22117e-05 4.62944e-05 4.82569e-05
-1.06726e-05 3.37893e-05 3.4434e-05
-8.48596e-06 2.82921e-05 2.8325e-05
-6.80163e-06 2.38226e-05 2.34457e-05
-5.67751e-06 1.64714e-05 1.58225e-05
-4.80539e-06 1.0232e-05 9.64155e-06
-4.33584e-06 4.87847e-06 4.53826e-06
0 0 0
8.86324e-06 0 0
9.89186e-06 2.75909e-06 8.42393e-06
1.18261e-05 6.0641e-06 1.79734e-05
1.43488e-05 1.04073e-05 2.97257e-05
1.81469e-05 1.60149e-05 4.45584e-05
2.30927e-05 1.9547e-05 5.452e-05
2.66895e-05 2.38395e-05 6.74083e-05
2.81254e-05 3.42793e-05 9.68587e-05
2.87814e-05 4.53144e-05 0.000128097
2.8424e-05 5.66486e-05 0.000160374
2.66454e-05 6.77649e-05 0.0001929
2.27972e-05 7.7738e-05 0.000224747
2.01917e-05 8.44488e-05 0.000254847
2.09679e-05 8.73437e-05 0.000267927
1.76586e-05 9.25462e-05 0.000278064
1.1042e-05 0.000102033 0.000293153
4.58739e-06 0.000106427 0.0003042
2.14402e-06 0.000105801 0.000311592
-4.69784e-07 0.000105751 0.000312966
-2.95383e-06 0.000105306 0.000311391
-5.1445e-06 0.000104932 0.000308534
-1.10931e-05 0.000104778 0.000298535
-1.70342e-05 9.98773e-05 0.000285475
-1.96667e-05 9.02638e-05 0.000269148
-1.83262e-05 8.51266e-05 0.000258842
-2.03328e-05 8.23191e-05 0.000246048
-2.36728e-05 7.60119e-05 0.000217264
-2.5142e-05 6.67431e-05 0.000187166
-2.53848e-05 5.65176e-05 0.000156558
-2.48044e-05 4.61728e-05 0.00012612
-2.36348e-05 3.61321e-05 9.6439e-05
-2.05924e-05 2.65431e-05 6.81631e-05
-1.63517e-05 2.2472e-05 5.5605e-05
-1.30769e-05 1.89311e-05 4.55919e-05
-1.08345e-05 1.29424e-05 3.03386e-05
-9.0723e-06 7.92169e-06 1.82895e-05
-8.12597e-06 3.73856e-06 8.55289e-06
0 0 0
1.16957e-05 0 0
1.31927e-05 8.8294e-07 1.1375e-05
1.60165e-05 2.15747e-06 2.4529e-05
1.96001e-05 4.18853e-06 4.13149e-05
2.46894e-05 6.9051e-06 6.35278e-05
3.10561e-05 8.11156e-06 7.93047e-05
3.63892e-05 7.41853e-06 9.96888e-05
3.83351e-05 8.61906e-06 0.000145754
3.92556e-05 1.07288e-05 0.000194255
3.86885e-05 1.33691e-05 0.000244048
3.5817e-05 1.60803e-05 0.000294055
2.87999e-05 1.81489e-05 0.000343014
2.53741e-05 1.56669e-05 0.000389632
3.08409e-05 1.39132e-05 0.000410046
2.67375e-05 1.75483e-05 0.000425788
1.52124e-05 2.47874e-05 0.000449407
3.92831e-06 2.61384e-05 0.000466774
2.14983e-06 2.14648e-05 0.000478487
-6.70691e-07 2.11178e-05 0.000480631
-3.32939e-06 2.10952e-05 0.000478243
-4.79788e-06 2.14111e-05 0.000473846
-1.5339e-05 2.59438e-05 0.000458169
-2.58529e-05 2.46062e-05 0.000437804
-2.90585e-05 1.76546e-05 0.000412447
-2.30068e-05 1.41833e-05 0.000396512
-2.56391e-05 1.59017e-05 0.000376545
-3.18852e-05 1.83721e-05 0.000331925
-3.42883e-05 1.65655e-05 0.000285657
-3.46578e-05 1.42819e-05 0.000238622
-3.38053e-05 1.22423e-05 0.000191678
-3.22268e-05 1.09251e-05 0.000145525
-2.77491e-05 1.0598e-05 0.000101038
-2.244e-05 1.14815e-05 8.0994e-05
-1.80447e-05 1.01778e-05 6.49701e-05
-1.48007e-05 7.00846e-06 4.20208e-05
-1.21821e-05 4.21217e-06 2.48337e-05
-1.07837e-05 1.96244e-06 1.14817e-05
0 0 0
1.25659e-05 0 0
1.43538e-05 -2.22791e-06 1.27449e-05
1.77313e-05 -4.4843e-06 2.79076e-05
2.16936e-05 -6.66474e-06 4.83874e-05
2.61899e-05 -8.57626e-06 7.80056e-05
2.85856e-05 -9.57586e-06 0.000102109
3.6371e-05 -3.16524e-05 0.000132457
3.9173e-05 -6.54002e-05 0.000199483
4.06175e-05 -9.0753e-05 0.000268723
4.01513e-05 -0.000114169 0.000338804
3.67075e-05 -0.000136118 0.000408562
2.52554e-05 -0.000153476 0.000476469
2.09244e-05 -0.000152861 0.000541686
3.72586e-05 -0.000151059 0.000570663
3.32701e-05 -0.000167751 0.00059279
1.60696e-05 -0.000200234 0.000626766
-1.02301e-06 -0.000208433 0.000651951
1.33638e-06 -0.000192462 0.000669159
-6.57027e-07 -0.000190439 0.000672172
-2.51232e-06 -0.000189468 0.00066896
6.55481e-08 -0.000190544 0.000662907
-1.61617e-05 -0.000204609 0.000640324
-3.21205e-05 -0.000195106 0.000611197
-3.52082e-05 -0.000162294 0.00057515
-1.87128e-05 -0.000145713 0.000552869
-2.22296e-05 -0.000147376 0.000524486
-3.26883e-05 -0.000148163 0.0004619
-3.55513e-05 -0.000131661 0.000397672
-3.57086e-05 -0.000110677 0.000332076
-3.42181e-05 -8.79462e-05 0.000266044
-3.17772e-05 -6.25325e-05 0.000200098
-2.52577e-05 -2.75713e-05 0.000134813
-2.42727e-05 -5.26548e-06 0.00010426
-2.03161e-05 -4.82696e-06 7.93688e-05
-1.65937e-05 -3.44297e-06 4.8773e-05
-1.33796e-05 -2.14108e-06 2.79623e-05
-1.1676e-05 -1.0008e-06 1.27247e-05
0 0 0
1.14162e-05 0 0
1.313e-05 -5.93216e-06 1.18119e-05
1.64186e-05 -1.25248e-05 2.60872e-05
2.02978e-05 -2.01647e-05 4.61175e-05
2.44741e-05 -2.7589e-05 7.77913e-05
5.57266e-06 -2.65376e-05 0.000111814
1.85613e-05 -3.26988e-05 0.000151301
2.55838e-05 -4.62452e-05 0.000237278
2.80152e-05 -6.10392e-05 0.000322301
2.83119e-05 -7.63833e-05 0.000406982
2.72124e-05 -9.16913e-05 0.000490487
2.48175e-05 -0.000106394 0.000570627
2.20538e-05 -0.000119802 0.000643856
1.99478e-05 -0.000125721 0.000676129
1.64956e-05 -0.000131033 0.000704979
1.156e-05 -0.000139657 0.000751419
6.67684e-06 -0.000145479 0.000782397
3.16385e-06 -0.000148594 0.000798744
-2.77651e-07 -0.000149196 0.00080183
-3.6075e-06 -0.000148541 0.000798136
-6.90212e-06 -0.000147315 0.000791539
-1.12364e-05 -0.000143083 0.000768887
-1.54384e-05 -0.000136465 0.000733415
-1.82847e-05 -0.000127471 0.000684907
-1.99931e-05 -0.000122148 0.00065601
-2.21914e-05 -0.000116327 0.000624317
-2.39695e-05 -0.000103414 0.000553912
-2.45878e-05 -8.9479e-05 0.000478046
-2.39064e-05 -7.50783e-05 0.000399509
-2.11612e-05 -6.06432e-05 0.00031977
-1.41127e-05 -4.65562e-05 0.000238901
-2.92711e-06 -3.28161e-05 0.000155133
-2.36732e-05 -2.42953e-05 0.000113959
-1.9259e-05 -2.39824e-05 7.87433e-05
-1.54673e-05 -1.65926e-05 4.62645e-05
-1.22925e-05 -9.87514e-06 2.60217e-05
-1.06447e-05 -4.54315e-06 1.17411e-05
0 0 0
8.39822e-06 0 0
9.71639e-06 -8.27329e-06 8.68278e-06
1.23397e-05 -1.77245e-05 1.92008e-05
1.60697e-05 -2.94927e-05 3.38743e-05
2.46206e-05 -4.44387e-05 5.59696e-05
-4.20476e-06 -5.58186e-05 7.4483e-05
8.93034e-06 -5.06964e-05 8.64435e-06
1.55746e-05 -5.65526e-05 9.46518e-06
1.78265e-05 -6.99319e-05 1.28067e-05
1.82366e-05 -8.57873e-05 1.61714e-05
1.75766e-05 -0.000102159 1.94897e-05
1.60244e-05 -0.000117984 2.26744e-05
1.42388e-05 -0.000132407 2.55844e-05
1.28821e-05 -0.000138799 2.68669e-05
1.06577e-05 -0.000144566 2.80133e-05
7.44921e-06 -0.000154046 2.98587e-05
4.24626e-06 -0.000160564 3.10895e-05
1.92764e-06 -0.000164128 3.1739e-05
-3.48067e-07 -0.000164843 3.18616e-05
-2.55175e-06 -0.000164177 3.17148e-05
-4.7298e-06 -0.00016283 3.14527e-05
-7.58073e-06 -0.00015813 3.05526e-05
-1.03221e-05 -0.000150802 2.91431e-05
-1.21644e-05 -0.000140938 2.72155e-05
-1.32708e-05 -0.000135151 2.60672e-05
-1.47021e-05 -0.00012885 2.48078e-05
-1.58753e-05 -0.000114915 2.20099e-05
-1.62598e-05 -9.98755e-05 1.89951e-05
-1.56727e-05 -8.44479e-05 1.5874e-05
-1.3378e-05 -6.95112e-05 1.27056e-05
-7.08143e-06 -5.66385e-05 9.52855e-06
4.78532e-06 -4.96261e-05 8.78805e-06
-2.34241e-05 -5.18158e-05 7.44465e-05
-1.52499e-05 -4.01994e-05 5.63167e-05
-1.16475e-05 -2.55998e-05 3.3958e-05
-9.11459e-06 -1.48731e-05 1.91559e-05
-7.8446e-06 -6.78397e-06 8.63322e-06
0 0 0
-1.42152e-08 0 0
-1.64518e-08 -8.27278e-06 -1.07189e-08
-2.26843e-08 -1.77236e-05 -2.13757e-08
-3.80542e-08 -2.94917e-05 -3.12682e-08
-8.01475e-08 -4.44397e-05 -3.76117e-08
7.02133e-09 -5.5821e-05 -3.42157e-08
9.89224e-09 -5.06992e-05 -1.38805e-09
1.27802e-08 -5.65554e-05 -4.83911e-11
1.51581e-08 -6.99343e-05 -2.19474e-11
1.68569e-08 -8.5789e-05 -1.49847e-11
1.78214e-08 -0.00010216 -8.3107e-12
1.80836e-08 -0.000117984 -2.11231e-12
1.78423e-08 -0.000132407 3.32718e-12
1.75634e-08 -0.000138798 5.5951e-12
1.69659e-08 -0.000144565 7.33211e-12
1.58319e-08 -0.000154045 1.00338e-11
1.44912e-08 -0.000160563 1.16663e-11
1.34015e-08 -0.000164127 1.2353e-11
1.2293e-08 -0.000164841 1.24449e-11
1.11869e-08 -0.000164175 1.21773e-11
1.00984e-08 -0.000162828 1.19181e-11
8.74029e-09 -0.000158129 1.12528e-11
7.48229e-09 -0.000150801 1.02788e-11
6.60563e-09 -0.000140937 9.06045e-12
6.03066e-09 -0.00013515 8.32625e-12
5.2362e-09 -0.000128849 7.93321e-12
4.31205e-09 -0.000114914 6.94945e-12
3.49187e-09 -9.98747e-05 6.03045e-12
2.75663e-09 -8.44472e-05 5.25474e-12
2.08255e-09 -6.95106e-05 4.60716e-12
1.45875e-09 -5.66379e-05 6.3659e-12
9.20745e-10 -4.96256e-05 1.47699e-10
-9.94756e-08 -5.18153e-05 3.63346e-09
-4.10494e-08 -4.01975e-05 1.31805e-08
-2.0095e-08 -2.55998e-05 1.39669e-08
-1.16818e-08 -1.48734e-05 1.00356e-08
-8.67874e-09 -6.78415e-06 5.07063e-09
0 0 0
-8.42608e-06 0 0
-9.74879e-06 -5.92972e-06 -8.70364e-06
-1.2385e-05 -1.25193e-05 -1.92423e-05
-1.61478e-05 -2.01546e-05 -3.39346e-05
-2.4784e-05 -2.75749e-05 -5.6041e-05
4.2173e-06 -2.65412e-05 -7.45475e-05
-8.91114e-06 -3.27056e-05 -8.6489e-06
-1.55488e-05 -4.62519e-05 -9.46702e-06
-1.77957e-05 -6.10445e-05 -1.28081e-05
-1.82023e-05 -7.6387e-05 -1.61724e-05
-1.75404e-05 -9.16934e-05 -1.94902e-05
-1.59877e-05 -0.000106394 -2.26745e-05
-1.42027e-05 -0.000119801 -2.55842e-05
-1.28466e-05 -0.00012572 -2.68665e-05
-1.06235e-05 -0.000131031 -2.80128e-05
-7.41734e-06 -0.000139655 -2.9858e-05
-4.21715e-06 -0.000145476 -3.10888e-05
-1.90076e-06 -0.00014859 -3.17382e-05
3.72691e-07 -0.000149193 -3.18608e-05
2.57413e-06 -0.000148537 -3.1714e-05
4.74999e-06 -0.000147312 -3.14519e-05
7.59818e-06 -0.00014308 -3.05519e-05
1.0337e-05 -0.000136462 -2.91424e-05
1.21776e-05 -0.000127469 -2.72149e-05
1.32828e-05 -0.000122145 -2.60666e-05
1.47125e-05 -0.000116325 -2.48072e-05
1.58839e-05 -0.000103412 -2.20094e-05
1.62668e-05 -8.94774e-05 -1.89946e-05
1.56782e-05 -7.50769e-05 -1.58737e-05
1.33822e-05 -6.06419e-05 -1.27053e-05
7.08433e-06 -4.65549e-05 -9.52826e-06
-4.7835e-06 -3.28149e-05 -8.78752e-06
2.32277e-05 -2.42941e-05 -7.44395e-05
1.51659e-05 -2.39968e-05 -5.62919e-05
1.1607e-05 -1.66014e-05 -3.39309e-05
9.09134e-06 -9.87927e-06 -1.91363e-05
7.82742e-06 -4.54479e-06 -8.62329e-06
0 0 0
-1.14428e-05 0 0
-1.31608e-05 -2.22293e-06 -1.18318e-05
-1.64615e-05 -4.47211e-06 -2.61267e-05
-2.03738e-05 -6.63708e-06 -4.61747e-05
-2.46553e-05 -8.50096e-06 -7.78585e-05
-5.56465e-06 -9.39221e-06 -0.000111874
-1.85429e-05 -3.14846e-05 -0.000151356
-2.5558e-05 -6.52435e-05 -0.000237323
-2.79841e-05 -9.06145e-05 -0.000322336
-2.82771e-05 -0.000114053 -0.000407007
-2.71756e-05 -0.000136027 -0.0004905
-2.47803e-05 -0.000153412 -0.000570631
-2.20172e-05 -0.000152827 -0.000643851
-1.99119e-05 -0.000151039 -0.00067612
-1.6461e-05 -0.000167743 -0.000704967
-1.15279e-05 -0.000200252 -0.000751403
-6.64755e-06 -0.000208476 -0.000782378
-3.13684e-06 -0.000192524 -0.000798724
3.02363e-07 -0.000190512 -0.00080181
3.62994e-06 -0.00018956 -0.000798116
6.92233e-06 -0.000190645 -0.00079152
1.12539e-05 -0.000204733 -0.000768869
1.54533e-05 -0.000195244 -0.000733398
1.82979e-05 -0.000162436 -0.000684891
2.00051e-05 -0.000145856 -0.000655996
2.22017e-05 -0.000147528 -0.000624304
2.3978e-05 -0.000148335 -0.0005539
2.45947e-05 -0.000131843 -0.000478036
2.39119e-05 -0.000110866 -0.0003995
2.11653e-05 -8.81407e-05 -0.000319762
1.41156e-05 -6.27303e-05 -0.000238894
2.9289e-06 -2.77679e-05 -0.000155126
2.34612e-05 -5.47767e-06 -0.000113952
1.91779e-05 -4.91043e-06 -7.87191e-05
1.54291e-05 -3.47037e-06 -4.62385e-05
1.22705e-05 -2.15165e-06 -2.60029e-05
1.06283e-05 -1.0047e-06 -1.17316e-05
0 0 0
-1.25898e-05 0 0
-1.43808e-05 8.88859e-07 -1.27631e-05
-1.77664e-05 2.17106e-06 -2.79437e-05
-2.17458e-05 4.21489e-06 -4.844e-05
-2.62629e-05 6.95687e-06 -7.80695e-05
-2.85937e-05 8.18668e-06 -0.000102173
-3.63583e-05 7.49447e-06 -0.00013252
-3.91565e-05 8.68705e-06 -0.000199539
-4.05976e-05 1.0788e-05 -0.000268769
-4.01291e-05 1.34181e-05 -0.000338838
-3.66843e-05 1.6118e-05 -0.000408584
-2.52329e-05 1.81748e-05 -0.000476479
-2.09017e-05 1.56813e-05 -0.000541685
-3.72351e-05 1.39216e-05 -0.000570657
-3.32484e-05 1.75505e-05 -0.00059278
-1.60497e-05 2.47782e-05 -0.00062675
1.04242e-06 2.61186e-05 -0.000651929
-1.3193e-06 2.14346e-05 -0.000669134
6.72157e-07 2.10829e-05 -0.000672147
2.52513e-06 2.10519e-05 -0.000668932
-5.65453e-08 2.13641e-05 -0.000662878
1.61721e-05 2.58913e-05 -0.000640295
3.21338e-05 2.45479e-05 -0.000611167
3.52205e-05 1.75893e-05 -0.000575121
1.87149e-05 1.41146e-05 -0.000552841
2.22301e-05 1.58321e-05 -0.000524458
3.26918e-05 1.8301e-05 -0.000461871
3.55548e-05 1.64917e-05 -0.000397643
3.57115e-05 1.42055e-05 -0.000332047
3.42206e-05 1.21639e-05 -0.000266016
3.17807e-05 1.08447e-05 -0.000200071
2.52439e-05 1.05144e-05 -0.000134788
2.41894e-05 1.14005e-05 -0.000104236
2.0263e-05 1.01247e-05 -7.93412e-05
1.65639e-05 6.98439e-06 -4.87481e-05
1.33609e-05 4.20117e-06 -2.7945e-05
1.16615e-05 1.95805e-06 -1.2716e-05
0 0 0
-1.17134e-05 0 0
-1.32117e-05 2.76482e-06 -1.13889e-05
-1.60386e-05 6.07641e-06 -2.45565e-05
-1.96266e-05 1.04283e-05 -4.13551e-05
-2.47155e-05 1.60482e-05 -6.3578e-05
-3.10623e-05 1.95874e-05 -7.93574e-05
-3.63843e-05 2.38809e-05 -9.97413e-05
-3.83271e-05 3.43169e-05 -0.000145801
-3.92454e-05 4.53469e-05 -0.000194295
-3.86769e-05 5.6675e-05 -0.000244078
-3.5805e-05 6.77846e-05 -0.000294075
-2.87884e-05 7.77507e-05 -0.000343024
-2.53626e-05 8.44549e-05 -0.000389632
-3.08293e-05 8.73465e-05 -0.000410043
-2.67268e-05 9.25455e-05 -0.000425781
-1.52028e-05 0.000102026 -0.000449393
-3.919e-06 0.000106414 -0.000466756
-2.14178e-06 0.000105783 -0.000478465
6.77583e-07 0.000105731 -0.000480608
3.33492e-06 0.000105282 -0.000478218
4.8016e-06 0.000104906 -0.00047382
1.53437e-05 0.00010475 -0.000458141
2.58594e-05 9.98463e-05 -0.000437775
2.90641e-05 9.02292e-05 -0.000412418
2.30071e-05 8.50903e-05 -0.000396483
2.56382e-05 8.22826e-05 -0.000376516
3.18859e-05 7.59756e-05 -0.000331895
3.42893e-05 6.6706e-05 -0.000285626
3.46586e-05 5.64796e-05 -0.000238592
3.38058e-05 4.6134e-05 -0.000191648
3.2227e-05 3.60926e-05 -0.000145496
2.77405e-05 2.65029e-05 -0.000101011
2.24126e-05 2.2434e-05 -8.09678e-05
1.80206e-05 1.89014e-05 -6.49453e-05
1.4784e-05 1.29258e-05 -4.2001e-05
1.217e-05 7.91292e-06 -2.48204e-05
1.07736e-05 3.73476e-06 -1.14751e-05
0 0 0
-8.87488e-06 0 0
-9.90394e-06 3.97823e-06 -8.43318e-06
-1.1839e-05 8.53164e-06 -1.79917e-05
-1.43624e-05 1.41674e-05 -2.97524e-05
-1.81583e-05 2.12007e-05 -4.4592e-05
-2.30962e-05 2.56973e-05 -5.45556e-05
-2.66877e-05 3.1432e-05 -6.74439e-05
-2.81215e-05 4.47796e-05 -9.68914e-05
-2.87761e-05 5.88775e-05 -0.000128125
-2.84179e-05 7.33202e-05 -0.000160395
-2.66391e-05 8.75632e-05 -0.000192915
-2.27912e-05 0.000100813 -0.000224754
-2.01858e-05 0.000111836 -0.000254848
-2.09621e-05 0.000116709 -0.000267925
-1.76533e-05 0.000122109 -0.000278059
-1.10373e-05 0.0001313 -0.000293144
-4.58296e-06 0.000136694 -0.000304188
-2.14025e-06 0.000138367 -0.000311577
4.72918e-07 0.000138675 -0.00031295
2.95626e-06 0.000138065 -0.000311373
5.14612e-06 0.00013718 -0.000308515
1.10952e-05 0.000134485 -0.000298515
1.70371e-05 0.000128358 -0.000285454
1.96691e-05 0.000118818 -0.000269126
1.83262e-05 0.000113421 -0.00025882
2.03321e-05 0.000108684 -0.000246026
2.36728e-05 9.82457e-05 -0.000217242
2.51422e-05 8.58678e-05 -0.000187144
2.53849e-05 7.26695e-05 -0.000156536
2.48043e-05 5.93289e-05 -0.000126099
2.36343e-05 4.6271e-05 -9.64181e-05
2.05881e-05 3.3766e-05 -6.81432e-05
1.63411e-05 2.82701e-05 -5.55861e-05
1.30658e-05 2.38039e-05 -4.55745e-05
1.08257e-05 1.64594e-05 -3.03252e-05
9.06522e-06 1.02249e-05 -1.82806e-05
8.11975e-06 4.87521e-06 -8.54847e-06
0 0 0
-4.75161e-06 0 0
-5.26712e-06 4.56666e-06 -4.46191e-06
-6.23465e-06 9.70264e-06 -9.46272e-06
-7.51089e-06 1.59053e-05 -1.54973e-05
-9.46513e-06 2.35121e-05 -2.29395e-05
-1.20009e-05 2.8343e-05 -2.78193e-05
-1.38124e-05 3.44738e-05 -3.41145e-05
-1.45833e-05 4.86353e-05 -4.85542e-05
-1.49372e-05 6.36524e-05 -6.39112e-05
-1.47809e-05 7.90699e-05 -7.98167e-05
-1.3956e-05 9.43377e-05 -9.58604e-05
-1.22549e-05 0.000108746 -0.000111555
-1.08399e-05 0.00012138 -0.000126335
-1.04925e-05 0.000126949 -0.000132733
-8.68395e-06 0.000132312 -0.000137692
-5.70001e-06 0.000141127 -0.000145049
-2.79304e-06 0.000146802 -0.000150438
-1.28015e-06 0.000149406 -0.000154045
2.32774e-07 0.000149891 -0.00015472
1.67577e-06 0.000149228 -0.000153938
3.05259e-06 0.000148118 -0.000152529
5.7081e-06 0.000144415 -0.000147629
8.35868e-06 0.000137927 -0.000141229
9.81079e-06 0.000128677 -0.000133228
9.83186e-06 0.000123291 -0.000128171
1.09299e-05 0.000117875 -0.000121909
1.23806e-05 0.000105892 -0.000107775
1.30536e-05 9.24128e-05 -9.29345e-05
1.3157e-05 7.82366e-05 -7.78276e-05
1.28466e-05 6.39508e-05 -6.28245e-05
1.22113e-05 4.99815e-05 -4.82462e-05
1.06709e-05 3.6659e-05 -3.44239e-05
8.48199e-06 3.07717e-05 -2.83154e-05
6.7972e-06 2.59807e-05 -2.34369e-05
5.6737e-06 1.80873e-05 -1.58159e-05
4.80213e-06 1.13197e-05 -9.63713e-06
4.33287e-06 5.42485e-06 -4.53606e-06
0 0 0
0 0 0
0 0 0
0 0 0
0 0 0
0 0 0
0 0 0
0 0 0
0 0 0
0 0 0
0 0 0
0 0 0
0 0 0
0 0 0
0 0 0
0 0 0
0 0 0
0 0 0
0 0 0
0 0 0
0 0 0
0 0 0
0 0 0
0 0 0
0 0 0
0 0 0
0 0 0
0 0 0
0 0 0
0 0 0
0 0 0
0 0 0
0 0 0
0 0 0
0 0 0
0 0 0
0 0 0
0 0 0
0 0 0
0 0 0
0 1.6708e-05 0
0 3.57391e-05 0
0 5.91915e-05 0
0 8.8594e-05 0
0 0.000107722 0
0 0.000132116 0
0 0.000188215 0
0 0.000247966 0
0 0.000309698 0
0 0.000371585 0
0 0.000431465 0
0 0.000486765 0
0 0.000510835 0
0 0.000530723 0
0 0.00056131 0
0 0.000582851 0
0 0.000595898 0
0 0.000598348 0
0 0.000595457 0
0 0.000590293 0
0 0.000572501 0
0 0.0005474 0
0 0.000514805 0
0 0.000494788 0
0 0.000471446 0
0 0.000419119 0
0 0.000363274 0
0 0.000306006 0
0 0.000248995 0
0 0.000193592 0
0 0.000141008 0
0 0.000117651 0
0 9.86667e-05 0
0 6.80326e-05 0
0 4.22675e-05 0
0 2.01667e-05 0
0 0 0
1.78425e-05 0 0
1.99648e-05 1.46414e-05 4.37261e-06
2.40186e-05 3.17486e-05 9.35741e-06
2.94974e-05 5.36915e-05 1.55162e-05
3.79816e-05 8.23867e-05 2.32645e-05
4.8275e-05 0.000101782 2.83965e-05
5.52571e-05 0.000126665 3.50295e-05
5.85821e-05 0.000183672 5.039e-05
6.03706e-05 0.000244025 6.71705e-05
6.04795e-05 0.000306081 8.51407e-05
5.85768e-05 0.000368139 0.000103988
5.42544e-05 0.000428094 0.000123253
4.73953e-05 0.000483237 0.00014232
3.92621e-05 0.00050737 0.00015028
3.04552e-05 0.000527882 0.000155007
2.19883e-05 0.00055984 0.000160167
1.40975e-05 0.000581806 0.000164034
6.3899e-06 0.000594383 0.000167356
-9.70478e-07 0.000596718 0.000167779
-8.01295e-06 0.000593838 0.000166549
-1.50995e-05 0.000588793 0.000164973
-2.19632e-05 0.000571467 0.000159651
-2.90755e-05 0.000546014 0.000154165
-3.62843e-05 0.000512229 0.000147886
-4.27998e-05 0.000491667 0.000142999
-4.82723e-05 0.000468258 0.000135384
-5.16482e-05 0.000416032 0.000117615
-5.30021e-05 0.000360103 9.98282e-05
-5.27321e-05 0.000302694 8.24652e-05
-5.115e-05 0.000245438 6.5839e-05
-4.83766e-05 0.000189564 5.01637e-05
-4.25459e-05 0.000136226 3.56514e-05
-3.38272e-05 0.000112421 2.9266e-05
-2.653e-05 9.31373e-05 2.41021e-05
-2.17024e-05 6.30652e-05 1.60352e-05
-1.80674e-05 3.86348e-05 9.63797e-06
-1.61485e-05 1.82785e-05 4.49167e-06
0 0 0
3.34689e-05 0 0
3.78288e-05 1.03898e-05 8.25915e-06
4.62986e-05 2.33929e-05 1.77999e-05
5.79897e-05 4.1922e-05 2.98449e-05
7.61494e-05 6.90657e-05 4.5356e-05
9.71536e-05 8.96037e-05 5.58586e-05
0.000111015 0.000115728 6.94811e-05
0.000117347 0.0001746 0.000101026
0.000120646 0.000235828 0.000135546
0.000120717 0.000297947 0.000172636
0.000116827 0.000359606 0.000211795
0.00010797 0.000418899 0.000252201
9.45585e-05 0.000472974 0.000292506
7.94281e-05 0.000496892 0.000309477
6.19683e-05 0.000518359 0.000319787
4.41287e-05 0.000552756 0.000331057
2.74854e-05 0.000575486 0.000339124
1.23351e-05 0.000587185 0.00034577
-2.12636e-06 0.000589345 0.000346546
-1.5964e-05 0.000586571 0.000343926
-2.98885e-05 0.000581787 0.000340688
-4.4403e-05 0.000565447 0.000329765
-5.94305e-05 0.000539468 0.000318283
-7.37229e-05 0.000503674 0.000304748
-8.57854e-05 0.000482312 0.000294177
-9.6474e-05 0.000459067 0.000277985
-0.000103395 0.000407677 0.000240497
-0.000106152 0.00035227 0.00020327
-0.000105714 0.000295215 0.000167266
-0.000102776 0.000237976 0.000133001
-9.75148e-05 0.000181468 0.000100751