<?xml version="1.0"?>
<VTKFile type="RectilinearGrid" version="0.1" byte_order="LittleEndian">
<RectilinearGrid WholeExtent="0 37 0 14 0 34">
<Piece Extent="0 37 0 14 0 34">
<PointData>
<DataArray type="Float32" Name="MVP" NumberOfComponents="3" format="ascii">
0 0 0
0 0 0
0 0 0
0 0 0
0 0 0
0 0 0
0 0 0
0 0 0
0 0 0
0 0 0
0 0 0
0 0 0
0 0 0
0 0 0
0 0 0
0 0 0
0 0 0
0 0 0
0 0 0
0 0 0
0 0 0
0 0 0
0 0 0
0 0 0
0 0 0
0 0 0
0 0 0
0 0 0
0 0 0
0 0 0
0 0 0
0 0 0
0 0 0
0 0 0
0 0 0
0 0 0
0 0 0
0 0 0
0 0 0
0 0 5.36896e-05
0 0 0.000113294
0 0 0.000184029
0 0 0.000269562
0 0 0.000324
0 0 0.000393928
0 0 0.000556535
0 0 0.00072948
0 0 0.000907653
0 0 0.00108465
0 0 0.00125218
0 0 0.00139952
0 0 0.00146481
0 0 0.00152821
0 0 0.00163356
0 0 0.00170314
0 0 0.00173767
0 0 0.00174576
0 0 0.00174335
0 0 0.00173299
0 0 0.00169441
0 0 0.00162173
0 0 0.0015145
0 0 0.00145082
0 0 0.00138585
0 0 0.00124031
0 0 0.00107539
0 0 0.000901388
0 0 0.000726172
0 0 0.000555802
0 0 0.000395194
0 0 0.000325835
0 0 0.000271402
0 0 0.000185286
0 0 0.00011402
0 0 5.40112e-05
0 0 0
0 0 0
0 0 0.00010061
0 0 0.000213079
0 0 0.00034789
0 0 0.000512003
0 0 0.000616649
0 0 0.000751281
0 0 0.00106606
0 0 0.00140069
0 0 0.00174531
0 0 0.002087
0 0 0.00240808
0 0 0.00268323
0 0 0.00280532
0 0 0.00293243
0 0 0.00314732
0 0 0.00328265
0 0 0.00333997
0 0 0.00335376
0 0 0.00334915
0 0 0.00333098
0 0 0.00326587
0 0 0.00312463
0 0 0.00290634
0 0 0.00277878
0 0 0.00265731
0 0 0.00238557
0 0 0.00206957
0 0 0.00173373
0 0 0.00139489
0 0 0.00106521
0 0 0.000754124
0 0 0.000620445
0 0 0.000515641
0 0 0.000350205
0 0 0.00021434
0 0 0.000101146
0 0 0
0 0 0
0 0 0.000133572
0 0 0.000284597
0 0 0.000468633
0 0 0.000694802
0 0 0.000838108
0 0 0.00101893
0 0 0.00144909
0 0 0.0019079
0 0 0.0023813
0 0 0.00284981
0 0 0.00328462
0 0 0.00363511
0 0 0.0037898
0 0 0.0039778
0 0 0.00430477
0 0 0.00449256
0 0 0.0045434
0 0 0.00455786
0 0 0.00455162
0 0 0.00453124
0 0 0.00446974
0 0 0.00427408
0 0 0.00394302
0 0 0.00375467
0 0 0.00360075
0 0 0.00325472
0 0 0.00282694
0 0 0.00236668
0 0 0.00190143
0 0 0.00144948
0 0 0.00102397
0 0 0.000843994
0 0 0.000699952
0 0 0.000471479
0 0 0.000285966
0 0 0.000134101
0 0 0
0 0 0
0 0 0.000144899
0 0 0.000311152
0 0 0.00051821
0 0 0.000774633
0 0 0.000931351
0 0 0.00109591
0 0 0.00152582
0 0 0.00199955
0 0 0.0024959
0 0 0.00298889
0 0 0.00344104
0 0 0.00375474
0 0 0.00388514
0 0 0.00411412
0 0 0.00452368
0 0 0.00472436
0 0 0.00471638
0 0 0.00472614
0 0 0.0047198
0 0 0.00470398
0 0 0.00470073
0 0 0.00449216
0 0 0.00407943
0 0 0.0038506
0 0 0.00372074
0 0 0.00341119
0 0 0.00296661
0 0 0.00248277
0 0 0.00199564
0 0 0.00152964
0 0 0.00110407
0 0 0.000939121
0 0 0.000780237
0 0 0.000520532
0 0 0.000311957
0 0 0.00014511
0 0 0
0 0 0
0 0 0.0001323
0 0 0.000285489
0 0 0.000479829
0 0 0.000727274
0 0 0.000887654
0 0 0.000912265
0 0 0.00112627
0 0 0.00143925
0 0 0.00178794
0 0 0.00214256
0 0 0.00248441
0 0 0.00279662
0 0 0.00293539
0 0 0.00306092
0 0 0.0032686
0 0 0.00341432
0 0 0.00349855
0 0 0.00351831
0 0 0.00351369
0 0 0.00348953
0 0 0.00339742
0 0 0.00324611
0 0 0.00303587
0 0 0.0029103
0 0 0.00277228
0 0 0.00246379
0 0 0.00212782
0 0 0.00178037
0 0 0.00143924
0 0 0.00113319
0 0 0.00092337
0 0 0.000896645
0 0 0.000732406
0 0 0.0004816
0 0 0.000285954
0 0 0.000132357
0 0 0
0 0 0
0 0 9.75854e-05
0 0 0.000211526
0 0 0.000359395
0 0 0.000561417
0 0 0.0007338
0 0 0.000715494
0 0 0.000837672
0 0 0.00105393
0 0 0.001303
0 0 0.00155847
0 0 0.00180514
0 0 0.00203041
0 0 0.00213063
0 0 0.00222141
0 0 0.00237199
0 0 0.002478
0 0 0.00253942
0 0 0.00255384
0 0 0.00255046
0 0 0.00253283
0 0 0.00246565
0 0 0.00235556
0 0 0.00220311
0 0 0.0021123
0 0 0.00201262
0 0 0.00179004
0 0 0.00154766
0 0 0.0012974
0 0 0.00105374
0 0 0.000842099
0 0 0.000721687
0 0 0.000737954
0 0 0.000564571
0 0 0.000360622
0 0 0.000211865
0 0 9.76302e-05
0 0 0
0 0 0
0 0 -4.10693e-08
0 0 -9.02969e-08
0 0 -1.62515e-07
0 0 -2.92101e-07
0 0 -4.35959e-07
0 0 -4.2523e-07
0 0 -3.86516e-07
0 0 -3.35938e-07
0 0 -2.75866e-07
0 0 -2.08995e-07
0 0 -1.38269e-07
0 0 -6.64646e-08
0 0 -3.09765e-08
0 0 3.95795e-09
0 0 7.15779e-08
0 0 1.3484e-07
0 0 1.92962e-07
0 0 2.19966e-07
0 0 2.69781e-07
0 0 2.92584e-07
0 0 3.34047e-07
0 0 3.70552e-07
0 0 4.02466e-07
0 0 4.16662e-07
0 0 4.2955e-07
0 0 4.52046e-07
0 0 4.7119e-07
0 0 4.87401e-07
0 0 5.00929e-07
0 0 5.1179e-07
0 0 5.19482e-07
0 0 5.21001e-07
0 0 3.1804e-07
0 0 1.53028e-07
0 0 7.47211e-08
0 0 3.11752e-08
0 0 0
0 0 0
0 0 -9.7666e-05
0 0 -0.000211704
0 0 -0.000359717
0 0 -0.000562005
0 0 -0.00073468
0 0 -0.000716353
0 0 -0.000838455
0 0 -0.00105461
0 0 -0.00130356
0 0 -0.00155889
0 0 -0.00180542
0 0 -0.00203055
0 0 -0.00213069
0 0 -0.0022214
0 0 -0.00237184
0 0 -0.00247772
0 0 -0.00253903
0 0 -0.0025534
0 0 -0.00254992
0 0 -0.00253224
0 0 -0.00246498
0 0 -0.00235481
0 0 -0.0022023
0 0 -0.00211146
0 0 -0.00201176
0 0 -0.00178914
0 0 -0.00154671
0 0 -0.00129642
0 0 -0.00105274
0 0 -0.000841073
0 0 -0.000720644
0 0 -0.000736905
0 0 -0.000563925
0 0 -0.000360315
0 0 -0.000211717
0 0 -9.75683e-05
0 0 0
0 0 0
0 0 -0.000132377
0 0 -0.000285658
0 0 -0.000480135
0 0 -0.000727838
0 0 -0.00088854
0 0 -0.000913132
0 0 -0.00112706
0 0 -0.00143994
0 0 -0.0017885
0 0 -0.00214299
0 0 -0.00248469
0 0 -0.00279675
0 0 -0.00293545
0 0 -0.00306091
0 0 -0.00326845
0 0 -0.00341404
0 0 -0.00349815
0 0 -0.00351787
0 0 -0.00351314
0 0 -0.00348893
0 0 -0.00339674
0 0 -0.00324536
0 0 -0.00303506
0 0 -0.00290946
0 0 -0.00277142
0 0 -0.00246288
0 0 -0.00212688
0 0 -0.00177939
0 0 -0.00143824
0 0 -0.00113216
0 0 -0.000922323
0 0 -0.000895585
0 0 -0.000731785
0 0 -0.00048131
0 0 -0.000285812
0 0 -0.000132299
0 0 0
0 0 0
0 0 -0.000144967
0 0 -0.000311301
0 0 -0.000518467
0 0 -0.000775063
0 0 -0.000931906
0 0 -0.00109647
0 0 -0.00152632
0 0 -0.00199999
0 0 -0.00249626
0 0 -0.00298915
0 0 -0.00344121
0 0 -0.00375481
0 0 -0.00388517
0 0 -0.0041141
0 0 -0.00452358
0 0 -0.00472417
0 0 -0.00471612
0 0 -0.00472584
0 0 -0.00471944
0 0 -0.00470359
0 0 -0.0047003
0 0 -0.00449169
0 0 -0.0040789
0 0 -0.00385004
0 0 -0.00372018
0 0 -0.00341063
0 0 -0.00296603
0 0 -0.00248217
0 0 -0.00199503
0 0 -0.00152902
0 0 -0.00110343
0 0 -0.000938502
0 0 -0.000779787
0 0 -0.000520296
0 0 -0.000311837
0 0 -0.000145059
0 0 0
0 0 0
0 0 -0.000133622
0 0 -0.000284701
0 0 -0.000468803
0 0 -0.000695053
0 0 -0.0008384
0 0 -0.00101923
0 0 -0.00144936
0 0 -0.00190814
0 0 -0.00238149
0 0 -0.00284995
0 0 -0.00328471
0 0 -0.00363514
0 0 -0.00378981
0 0 -0.00397778
0 0 -0.00430471
0 0 -0.00449246
0 0 -0.00454326
0 0 -0.00455769
0 0 -0.00455143
0 0 -0.00453104
0 0 -0.00446952
0 0 -0.00427384
0 0 -0.00394275
0 0 -0.00375439
0 0 -0.00360047
0 0 -0.00325444
0 0 -0.00282665
0 0 -0.00236639
0 0 -0.00190114
0 0 -0.00144918
0 0 -0.00102366
0 0 -0.000843704
0 0 -0.000699716
0 0 -0.000471337
0 0 -0.000285887
0 0 -0.000134066
0 0 0
0 0 0
0 0 -0.000100642
0 0 -0.000213144
0 0 -0.000347992
0 0 -0.000512144
0 0 -0.000616806
0 0 -0.000751441
0 0 -0.0010662
0 0 -0.00140081
0 0 -0.00174541
0 0 -0.00208708
0 0 -0.00240812
0 0 -0.00268324
0 0 -0.00280532
0 0 -0.00293242
0 0 -0.00314728
0 0 -0.0032826
0 0 -0.00333989
0 0 -0.00335368
0 0 -0.00334905
0 0 -0.00333087
0 0 -0.00326576
0 0 -0.00312451
0 0 -0.0029062
0 0 -0.00277864
0 0 -0.00265716
0 0 -0.00238542
0 0 -0.00206942
0 0 -0.00173359
0 0 -0.00139474
0 0 -0.00106506
0 0 -0.000753975
0 0 -0.000620304
0 0 -0.00051552
0 0 -0.000350126
0 0 -0.000214294
0 0 -0.000101125
0 0 0
0 0 0
0 0 -5.37052e-05
0 0 -0.000113325
0 0 -0.000184077
0 0 -0.000269626
0 0 -0.00032407
0 0 -0.000393999
0 0 -0.0005566
0 0 -0.000729536
0 0 -0.000907697
0 0 -0.00108468
0 0 -0.0012522
0 0 -0.00139952
0 0 -0.00146481
0 0 -0.0015282
0 0 -0.00163354
0 0 -0.00170311
0 0 -0.00173763
0 0 -0.00174572
0 0 -0.00174331
0 0 -0.00173294
0 0 -0.00169436
0 0 -0.00162167
0 0 -0.00151444
0 0 -0.00145075
0 0 -0.00138578
0 0 -0.00124025
0 0 -0.00107533
0 0 -0.000901326
0 0 -0.00072611
0 0 -0.000555739
0 0 -0.000395132
0 0 -0.000325776
0 0 -0.000271351
0 0 -0.000185251
0 0 -0.000113999
0 0 -5.40011e-05
0 0 0
0 0 0
0 0 0
0 0 0
0 0 0
0 0 0
0 0 0
0 0 0
0 0 0
0 0 0
0 0 0
0 0 0
0 0 0
0 0 0
0 0 0
0 0 0
0 0 0
0 0 0
0 0 0
0 0 0
0 0 0
0 0 0
0 0 0
0 0 0
0 0 0
0 0 0
0 0 0
0 0 0
0 0 0
0 0 0
0 0 0
0 0 0
0 0 0
0 0 0
0 0 0
0 0 0
0 0 0
0 0 0
0 0 0
0 0 0
0 5.41527e-05 0
0 0.000114562 0
0 0.000186747 0
0 0.000274581 0
0 0.000330503 0
0 0.000402122 0
0 0.000568644 0
0 0.000745918 0
0 0.000928564 0
0 0.00110997 0
0 0.00128165 0
0 0.00143274 0
0 0.0014997 0
0 0.00156462 0
0 0.00167254 0
0 0.00174397 0
0 0.00177961 0
0 0.00178797 0
0 0.00178556 0
0 0.00177493 0
0 0.00173531 0
0 0.00166093 0
0 0.00155143 0
0 0.00148644 0
0 0.00142006 0
0 0.00127143 0
0 0.00110324 0
0 0.000925932 0
0 0.000747507 0
0 0.000574111 0
0 0.000410649 0
0 0.000339876 0
0 0.000284019 0
0 0.00019497 0
0 0.000120599 0
0 5.73399e-05 0
0 0 0
5.49583e-05 0 0
6.10405e-05 4.72163e-05 5.47661e-05
7.24948e-05 0.00010073 0.00011629
8.77291e-05 0.000166141 0.000190799
0.000111412 0.000247007 0.000283049
0.000142598 0.000298745 0.000343499
0.000165596 0.000365215 0.000421727
0.000176073 0.000521492 0.000602761
0.000181295 0.000687653 0.000796335
0.000180028 0.000858662 0.000997355
0.000170412 0.00102781 0.00120032
0.000150045 0.00118555 0.00139898
0.000133148 0.00131713 0.00158623
0.000129254 0.00137561 0.0016678
0.000107643 0.00144085 0.00173207
7.16444e-05 0.00155296 0.00182965
3.63721e-05 0.00162057 0.00190312
1.78464e-05 0.00164446 0.00195457
-9.09526e-07 0.00165045 0.00196637
-1.94027e-05 0.00164823 0.00196339
-3.74163e-05 0.00164016 0.00194878
-7.17408e-05 0.00161257 0.00189238
-0.000106478 0.0015423 0.00181503
-0.000126729 0.00142893 0.00171499
-0.000129365 0.00136372 0.00165034
-0.00014504 0.00130577 0.00156929
-0.00016444 0.00117641 0.00138453
-0.000173471 0.00102197 0.00118922
-0.000174551 0.000856755 0.000989941
-0.000169537 0.000689881 0.000792486
-0.000159637 0.000527583 0.000601969
-0.000137739 0.000374374 0.000423309
-0.000107918 0.000308712 0.000345758
-8.52592e-05 0.000256977 0.000285264
-7.05819e-05 0.000174776 0.00019224
-5.9469e-05 0.000107043 0.000117099
-5.35493e-05 5.05417e-05 5.51187e-05
0 0 0
0.00010285 0 0
0.00011503 3.29364e-05 0.000103258
0.000138008 7.18273e-05 0.000220546
0.000168207 0.000122127 0.000365303
0.000214116 0.00018639 0.000548546
0.000274521 0.000226689 0.000671331
0.000320537 0.000274843 0.000830892
0.000340616 0.000394785 0.00120045
0.000350543 0.00052372 0.0015948
0.000347407 0.000657208 0.00200318
0.0003265 0.000788551 0.00241492
0.000280228 0.000906526 0.00281809
0.000248975 0.000985683 0.00319931
0.00025881 0.00101998 0.00336589
0.000219176 0.00108241 0.00349707
0.00013919 0.00119708 0.0036967
6.07342e-05 0.0012514 0.00384685
3.06921e-05 0.00124604 0.00395189
-1.84821e-06 0.00124697 0.00397583
-3.3898e-05 0.00124534 0.00396981
-6.29824e-05 0.00124286 0.00394019
-0.000139528 0.00124539 0.00382515
-0.000216957 0.00118921 0.00366726
-0.000253998 0.00107407 0.00346287
-0.000241957 0.00101189 0.00333103
-0.000270888 0.000977938 0.00316552
-0.000315192 0.000900342 0.00278937
-0.000334902 0.000785042 0.00239303
-0.000337625 0.000657074 0.00198884
-0.000328071 0.000527324 0.00158774
-0.000309143 0.000402105 0.00119951
-0.000265379 0.000285244 0.000834455
-0.000207703 0.000237797 0.000676048
-0.000163756 0.000197348 0.000552949
-0.000134573 0.00013152 0.000367942
-0.000112205 7.86524e-05 0.000221932
-0.000100315 3.6519e-05 0.000103834
0 0 0
0.00013623 0 0
0.000154112 1.08709e-05 0.000138846
0.000188013 2.5976e-05 0.000299658
0.000231509 4.95956e-05 0.000505229
0.000293206 8.1754e-05 0.000777546
0.000368992 9.69783e-05 0.000969768
0.00043825 8.31632e-05 0.00121954
0.000467048 8.83232e-05 0.00179906
0.000481419 0.000108368 0.00241331
0.000476165 0.000136171 0.00304465
0.000442047 0.000165254 0.00367843
0.000357245 0.000186883 0.00429856
0.000315745 0.000153958 0.00488876
0.000382065 0.000131384 0.00514839
0.000332626 0.000173931 0.00535174
0.000192862 0.000259134 0.00566313
5.53079e-05 0.000273885 0.00589802
3.29187e-05 0.00021618 0.00606322
-2.66863e-06 0.000211764 0.00610021
-3.76348e-05 0.000211651 0.00609108
-5.88279e-05 0.000215926 0.00604547
-0.000193557 0.000273078 0.00586507
-0.000329474 0.000258359 0.00561865
-0.000375437 0.000174211 0.00530057
-0.000306751 0.000132275 0.00509646
-0.000345139 0.000154753 0.00483852
-0.000426944 0.000187716 0.00425603
-0.000459232 0.000167147 0.00364644
-0.000463759 0.000139757 0.00302442
-0.000449787 0.000114305 0.0024044
-0.000422656 9.72998e-05 0.00179947
-0.000356957 9.53252e-05 0.00122601
-0.000285248 0.000109686 0.000977199
-0.000226108 9.39479e-05 0.000783766
-0.000183814 5.99664e-05 0.000508358
-0.000150628 3.34795e-05 0.000301074
-0.000133089 1.4799e-05 0.000139371
0 0 0
0.000147265 0 0
0.000169052 -2.59773e-05 0.000154561
0.000210803 -5.26165e-05 0.000338607
0.000261828 -7.79851e-05 0.00058709
0.000320849 -9.48049e-05 0.000945227
0.000337975 -8.58297e-05 0.00123233
0.000439566 -0.000361896 0.00159441
0.000483084 -0.000787251 0.00244362
0.000505202 -0.00110349 0.00332518
0.000501331 -0.00139398 0.00421586
0.000459978 -0.00166609 0.00510069
0.000320978 -0.00188236 0.0059611
0.000267621 -0.00188144 0.00678633
0.000464459 -0.00186297 0.0071542
0.000415571 -0.00206829 0.00743941
0.000206 -0.00246943 0.00788485
-3.3509e-06 -0.00257747 0.00822278
2.36215e-05 -0.00239194 0.00846263
-2.76108e-06 -0.00237166 0.00851398
-2.8589e-05 -0.00236824 0.00850172
-7.09424e-07 -0.0023852 0.00843875
-0.000206701 -0.00256403 0.00817832
-0.000411471 -0.00245136 0.00782525
-0.000456778 -0.00204893 0.00737182
-0.000259041 -0.00184394 0.00708602
-0.00030913 -0.00186191 0.00672041
-0.000444232 -0.00186349 0.00590538
-0.000483277 -0.00165026 0.00505945
-0.000485981 -0.00138156 0.00419113
-0.000463878 -0.00109342 0.00331666
-0.000422204 -0.000776714 0.00244838
-0.000326009 -0.000346691 0.00160599
-0.000314284 -6.97915e-05 0.00124201
-0.00025713 -8.10874e-05 0.000951328
-0.000206892 -6.62824e-05 0.000589063
-0.000165687 -4.41271e-05 0.000339101
-0.000144188 -2.15382e-05 0.000154617
0 0 0
0.000134263 0 0
0.000155523 -7.03942e-05 0.000142982
0.000197496 -0.000149627 0.000315977
0.000252082 -0.000242835 0.000558488
0.000327568 -0.000333246 0.000938798
5.88889e-05 -0.000309007 0.001334
0.000223852 -0.000388267 0.0017775
0.000322017 -0.000564971 0.0028823
0.000357084 -0.000753215 0.00397039
0.000362503 -0.000947669 0.005047
0.000349223 -0.00114139 0.00610511
0.000319041 -0.00132739 0.00711969
0.000283906 -0.00149732 0.00804818
0.000257118 -0.00157266 0.00845896
0.000213239 -0.00164059 0.0088278
0.000150589 -0.00175214 0.00942828
8.8393e-05 -0.00182968 0.00984124
4.31633e-05 -0.00187418 0.010076
-1.52186e-06 -0.00188459 0.0101306
-4.57377e-05 -0.00188211 0.0101165
-9.0049e-05 -0.00186934 0.0100486
-0.000149929 -0.00182061 0.00978977
-0.000209473 -0.00174004 0.00935961
-0.000250774 -0.00162708 0.00875116
-0.000275869 -0.00155911 0.00838214
-0.000308593 -0.00148415 0.0079736
-0.000336165 -0.00131613 0.00705613
-0.000347464 -0.00113312 0.00605836
-0.000340577 -0.00094297 0.00501996
-0.00030452 -0.000752116 0.00396319
-0.000206834 -0.0005667 0.00289214
-4.93954e-05 -0.000389374 0.00179674
-0.000325308 -0.000301341 0.00134355
-0.000248606 -0.000320447 0.000943095
-0.000194223 -0.000229988 0.00055943
-0.000152621 -0.000140072 0.000315962
-0.000131586 -6.53851e-05 0.000142826
0 0 0
9.8999e-05 0 0
0.000115627 -9.87961e-05 0.000105272
0.000150151 -0.000213765 0.000233276
0.0002053 -0.000362269 0.000413163
0.000348961 -0.000564159 0.000688053
-3.22457e-05 -0.000735793 0.000930711
0.000125861 -0.00070996 0.000290821
0.000219098 -0.000825192 0.000338298
0.000251416 -0.00103648 0.00046049
0.000257535 -0.00128085 0.000584174
0.000248562 -0.00153173 0.000705913
0.000227041 -0.00177403 0.000822708
0.00020214 -0.00199532 0.000929605
0.000183213 -0.00209376 0.000976876
0.000152196 -0.00218292 0.00101929
0.000107564 -0.00233079 0.00108822
6.29161e-05 -0.00243485 0.00113538
3.02853e-05 -0.0024951 0.00116187
-1.99487e-06 -0.00250922 0.00116784
-3.39322e-05 -0.0025058 0.00116556
-6.58923e-05 -0.00248843 0.00115742
-0.000108855 -0.00242235 0.00112704
-0.000151242 -0.00231412 0.00107709
-0.000180416 -0.00216427 0.00100687
-0.000198139 -0.00207501 0.000964412
-0.000221337 -0.00197704 0.000917497
-0.000241066 -0.00175829 0.000812356
-0.000248798 -0.00152008 0.000698238
-0.000241994 -0.00127411 0.000579627
-0.000209749 -0.00103453 0.000459077
-0.000118468 -0.00082615 0.00033953
3.40971e-05 -0.000706794 0.000293075
-0.000345098 -0.000721545 0.000928852
-0.00020248 -0.000548832 0.000689053
-0.000147738 -0.000348161 0.000413567
-0.000113529 -0.000203452 0.000233225
-9.70718e-05 -9.34187e-05 0.000105152
0 0 0
-4.43622e-08 0 0
-5.24752e-08 -9.87946e-05 -3.27278e-08
-7.53155e-08 -0.000213762 -6.4978e-08
-1.32285e-07 -0.000362267 -9.38655e-08
-2.89765e-07 -0.000564164 -1.08706e-07
1.99778e-08 -0.000735802 -9.07151e-08
3.75736e-08 -0.00070997 -1.7617e-08
4.95186e-08 -0.000825203 -1.79295e-09
5.90183e-08 -0.00103648 -8.28524e-10
6.58188e-08 -0.00128086 -5.48886e-10
6.96996e-08 -0.00153173 -2.93219e-10
7.08303e-08 -0.00177403 -5.73329e-11
7.00567e-08 -0.00199532 1.40903e-10
6.89852e-08 -0.00209376 2.1717e-10
6.68039e-08 -0.00218292 2.88604e-10
6.25498e-08 -0.00233079 3.90134e-10
5.75148e-08 -0.00243485 4.446e-10
5.34703e-08 -0.00249509 4.61215e-10
4.93478e-08 -0.00250921 4.58553e-10
4.51981e-08 -0.0025058 4.35211e-10
4.11108e-08 -0.00248843 4.18608e-10
3.62113e-08 -0.00242235 3.80621e-10
3.16683e-08 -0.00231411 3.31437e-10
2.81823e-08 -0.00216426 2.73252e-10
2.55953e-08 -0.00207501 2.39351e-10
2.23447e-08 -0.00197704 2.1874e-10
1.90141e-08 -0.00175829 1.74178e-10
1.60965e-08 -0.00152008 1.30658e-10
1.34261e-08 -0.00127411 9.34814e-11
1.07724e-08 -0.00103453 6.40269e-11
7.62494e-09 -0.000826148 6.92176e-11
3.00935e-09 -0.00070679 5.21549e-11
-4.05928e-07 -0.000721538 -9.09086e-09
-1.65006e-07 -0.000548822 3.34334e-08
-7.83033e-08 -0.00034816 4.25653e-08
-4.35446e-08 -0.000203452 3.16973e-08
-3.11744e-08 -9.34192e-05 1.61663e-08
0 0 0
-9.90861e-05 0 0
-0.000115731 -7.03866e-05 -0.000105336
-0.000150302 -0.00014961 -0.000233402
-0.000205572 -0.000242802 -0.000413344
-0.00034955 -0.000333198 -0.000688258
3.22814e-05 -0.000309022 -0.000930879
-0.000125789 -0.000388283 -0.000290873
-0.000219 -0.000564987 -0.000338321
-0.000251297 -0.000753228 -0.000460507
-0.000257402 -0.000947678 -0.000584185
-0.000248423 -0.00114139 -0.00070592
-0.000226899 -0.00132739 -0.000822709
-0.000202 -0.00149732 -0.000929602
-0.000183075 -0.00157266 -0.000976871
-0.000152063 -0.00164058 -0.00101929
-0.00010744 -0.00175213 -0.00108821
-6.2802e-05 -0.00182968 -0.00113537
-3.01794e-05 -0.00187417 -0.00116186
2.09249e-06 -0.00188458 -0.00116783
3.40215e-05 -0.0018821 -0.00116555
6.59735e-05 -0.00186934 -0.00115741
0.000108927 -0.00182061 -0.00112703
0.000151305 -0.00174004 -0.00107708
0.000180472 -0.00162707 -0.00100686
0.00019819 -0.0015591 -0.000964407
0.00022138 -0.00148414 -0.000917493
0.000241104 -0.00131613 -0.000812353
0.000248829 -0.00113312 -0.000698236
0.000242021 -0.000942968 -0.000579626
0.000209771 -0.000752114 -0.000459076
0.000118485 -0.000566698 -0.00033953
-3.40863e-05 -0.000389367 -0.000293076
0.000344293 -0.000301317 -0.000928872
0.000202141 -0.000320499 -0.000688992
0.000147579 -0.000230021 -0.000413485
0.000113442 -0.000140087 -0.000233163
9.70099e-05 -6.5391e-05 -0.000105121
0 0 0
-0.000134346 0 0
-0.000155621 -2.59612e-05 -0.000143042
-0.000197639 -5.25762e-05 -0.000316097
-0.000252347 -7.78907e-05 -0.000558659
-0.000328219 -9.45388e-05 -0.00093899
-5.88593e-05 -8.51698e-05 -0.00133415
-0.000223784 -0.000361291 -0.00177764
-0.000321921 -0.000786685 -0.00288241
-0.000356968 -0.00110299 -0.00397048
-0.000362373 -0.00139357 -0.00504706
-0.000349086 -0.00166578 -0.00610513
-0.000318902 -0.00188215 -0.00711969
-0.000283769 -0.00188133 -0.00804816
-0.000256982 -0.00186292 -0.00845893
-0.000213108 -0.00206828 -0.00882776
-0.000150466 -0.00246952 -0.00942823
-8.82812e-05 -0.00257765 -0.00984119
-4.30594e-05 -0.0023922 -0.010076
1.61755e-06 -0.00237196 -0.0101305
4.58253e-05 -0.00236862 -0.0101165
9.01284e-05 -0.00238561 -0.0100486
0.000149999 -0.00256453 -0.00978974
0.000209535 -0.00245192 -0.00935958
0.00025083 -0.0020495 -0.00875114
0.000275918 -0.00184451 -0.00838213
0.000308635 -0.00186253 -0.00797359
0.000336201 -0.00186418 -0.00705612
0.000347496 -0.001651 -0.00605836
0.000340603 -0.00138233 -0.00501997
0.000304542 -0.00109421 -0.0039632
0.000206855 -0.000777521 -0.00289216
4.94228e-05 -0.000347498 -0.00179676
0.000324427 -7.06739e-05 -0.00134358
0.000248277 -8.14294e-05 -0.000943036
0.000194074 -6.63918e-05 -0.000559352
0.000152539 -4.4168e-05 -0.000315902
0.000131527 -2.15529e-05 -0.000142796
0 0 0
-0.000147339 0 0
-0.000169137 1.08898e-05 -0.000154617
-0.000210919 2.60202e-05 -0.000338716
-0.000262007 4.96837e-05 -0.000587249
-0.000321107 8.19324e-05 -0.000945414
-0.000338001 9.7241e-05 -0.00123252
-0.000439519 8.34291e-05 -0.00159459
-0.000483024 8.85608e-05 -0.00244378
-0.000505129 0.000108574 -0.00332531
-0.000501249 0.000136339 -0.00421596
-0.000459893 0.000165382 -0.00510075
-0.000320895 0.000186968 -0.00596112
-0.000267536 0.000154001 -0.00678632
-0.000464372 0.000131405 -0.00715418
-0.000415491 0.00017393 -0.00743937
-0.000205925 0.000259091 -0.0078848
3.4252e-06 0.000273802 -0.00822271
-2.35561e-05 0.000216058 -0.00846256
2.81924e-06 0.000211625 -0.0085139
2.86385e-05 0.000211479 -0.00850164
7.44105e-07 0.00021574 -0.00843867
0.000206743 0.000272872 -0.00817823
0.000411526 0.00025813 -0.00782516
0.00045683 0.000173953 -0.00737175
0.00025905 0.000132004 -0.00708594
0.000309132 0.000154478 -0.00672033
0.000444248 0.000187435 -0.0059053
0.000483293 0.000166855 -0.00505937
0.000485996 0.000139454 -0.00419106
0.000463892 0.000113993 -0.00331659
0.000422225 9.69781e-05 -0.00244831
0.000325961 9.49875e-05 -0.00160593
0.000313943 0.000109357 -0.00124195
0.000256917 9.37345e-05 -0.00095125
0.000206777 5.98721e-05 -0.000588987
0.000165618 3.34376e-05 -0.000339046
0.000144136 1.47826e-05 -0.00015459
0 0 0
-0.000136285 0 0
-0.000154172 3.29544e-05 -0.000138889
-0.000188084 7.18664e-05 -0.000299742
-0.000231598 0.000122194 -0.000505351
-0.000293295 0.000186501 -0.000777697
-0.000369012 0.000226825 -0.000969926
-0.000438231 0.000274982 -0.0012197
-0.000467019 0.00039491 -0.00179921
-0.000481382 0.000523828 -0.00241343
-0.000476124 0.000657295 -0.00304474
-0.000442004 0.000788616 -0.00367849
-0.000357203 0.000906567 -0.00429858
-0.000315703 0.0009857 -0.00488876
-0.000382023 0.00101999 -0.00514838
-0.000332588 0.0010824 -0.00535171
-0.000192826 0.00119705 -0.00566308
-5.52728e-05 0.00125135 -0.00589796
-3.28884e-05 0.00124597 -0.00606314
2.6947e-06 0.00124689 -0.00610013
3.76557e-05 0.00124525 -0.006091
5.8842e-05 0.00124276 -0.00604539
0.000193576 0.00124528 -0.00586498
0.0003295 0.00118909 -0.00561856
0.00037546 0.00107394 -0.00530048
0.000306752 0.00101175 -0.00509637
0.000345136 0.000977799 -0.00483843
0.000426947 0.000900203 -0.00425594
0.000459238 0.0007849 -0.00364635
0.000463764 0.000656929 -0.00302433
0.000449792 0.000527175 -0.00240431
0.00042266 0.000401953 -0.00179938
0.000356926 0.000285086 -0.00122592
0.00028514 0.000237648 -0.00097712
0.000226013 0.000197233 -0.00078369
0.000183751 0.000131457 -0.000508296
0.000150584 7.86202e-05 -0.000301032
0.000133054 3.65054e-05 -0.00013935
0 0 0
-0.000102886 0 0
-0.000115067 4.72331e-05 -0.000103286
-0.000138049 0.000100765 -0.000220602
-0.000168251 0.000166196 -0.000365385
-0.000214153 0.000247085 -0.000548648
-0.000274532 0.000298834 -0.000671439
-0.000320529 0.000365305 -0.000831
-0.000340602 0.000521574 -0.00120055
-0.000350524 0.000687724 -0.00159489
-0.000347386 0.000858718 -0.00200324
-0.000326478 0.00102785 -0.00241496
-0.000280207 0.00118557 -0.00281811
-0.000248954 0.00131714 -0.00319931
-0.00025879 0.00137561 -0.00336588
-0.000219157 0.00144084 -0.00349705
-0.000139173 0.00155294 -0.00369667
-6.07178e-05 0.00162054 -0.00384681
-3.06782e-05 0.00164442 -0.00395184
1.85985e-06 0.0016504 -0.00397577
3.3907e-05 0.00164817 -0.00396975
6.29883e-05 0.0016401 -0.00394013
0.000139536 0.0016125 -0.00382509
0.000216969 0.00154222 -0.0036672
0.000254008 0.00142885 -0.0034628
0.000241957 0.00136363 -0.00333096
0.000270885 0.00130568 -0.00316546
0.000315193 0.00117633 -0.0027893
0.000334903 0.00102189 -0.00239297
0.000337626 0.000856671 -0.00198878
0.000328072 0.000689796 -0.00158767
0.000309142 0.000527497 -0.00119944
0.000265364 0.000374287 -0.000834392
0.000207662 0.00030863 -0.000675988
0.000163714 0.000256908 -0.000552894
0.00013454 0.000174732 -0.0003679
0.00011218 0.000107018 -0.000221904
0.000100294 5.05303e-05 -0.00010382
0 0 0
-5.49758e-05 0 0
-6.10585e-05 5.41688e-05 -5.47803e-05
-7.25135e-05 0.000114594 -0.000116318
-8.77479e-05 0.000186796 -0.00019084
-0.000111427 0.000274647 -0.0002831
-0.000142602 0.000330575 -0.000343552
-0.000165594 0.000402195 -0.000421781
-0.000176067 0.000568711 -0.000602811
-0.000181287 0.000745975 -0.000796377
-0.000180019 0.000928609 -0.000997387
-0.000170403 0.00111 -0.00120034
-0.000150036 0.00128167 -0.00139899
-0.000133139 0.00143274 -0.00158623
-0.000129246 0.0014997 -0.00166779
-0.000107636 0.00156461 -0.00173206
-7.16375e-05 0.00167252 -0.00182963
-3.63656e-05 0.00174393 -0.0019031
-1.78409e-05 0.00177957 -0.00195455
9.14022e-07 0.00178793 -0.00196635
1.94062e-05 0.00178552 -0.00196336
3.74185e-05 0.00177488 -0.00194875
7.17439e-05 0.00173525 -0.00189235
0.000106483 0.00166087 -0.001815
0.000126733 0.00155137 -0.00171495
0.000129364 0.00148637 -0.0016503
0.000145039 0.00141999 -0.00156925
0.00016444 0.00127137 -0.00138449
0.000173471 0.00110318 -0.00118918
0.000174551 0.000925869 -0.000989906
0.000169537 0.000747445 -0.000792451
0.000159636 0.000574049 -0.000601935
0.000137733 0.000410587 -0.000423277
0.000107904 0.000339817 -0.000345728
8.52428e-05 0.000283967 -0.000285236
7.05681e-05 0.000194935 -0.000192219
5.94576e-05 0.000120578 -0.000117085
5.35392e-05 5.73298e-05 -5.51117e-05
0 0 0
0 0 0
0 0 0
0 0 0
0 0 0
0 0 0
0 0 0
0 0 0
0 0 0
0 0 0
0 0 0
0 0 0
0 0 0
0 0 0
0 0 0
0 0 0
0 0 0
0 0 0
0 0 0
0 0 0
0 0 0
0 0 0
0 0 0
0 0 0
0 0 0
0 0 0
0 0 0
0 0 0
0 0 0
0 0 0
0 0 0
0 0 0
0 0 0
0 0 0
0 0 0
0 0 0
0 0 0
0 0 0
0 0 0
0 0 0
0 0.000200579 0
0 0.000426481 0
0 0.000700762 0
0 0.00104063 0
0 0.0012618 0
0 0.00154671 0
0 0.00220696 0
0 0.00291258 0
0 0.00364383 0
0 0.00437885 0
0 0.00509196 0
0 0.00575294 0
0 0.00604211 0
0 0.00628268 0
0 0.00665793 0
0 0.00693034 0
0 0.00710615 0
0 0.00714668 0
0 0.00713621 0
0 0.00708582 0
0 0.00689279 0
0 0.0066074 0
0 0.00622476 0
0 0.00598371 0
0 0.00569725 0
0 0.00504733 0
0 0.00434922 0
0 0.00363137 0
0 0.00291763 0
0 0.00222802 0
0 0.00158056 0
0 0.00129925 0
0 0.00107832 0
0 0.000733436 0
0 0.000450414 0
0 0.000213201 0
0 0 0
0.000205019 0 0
0.000229697 0.000176336 5.4104e-05
0.000276893 0.000379439 0.000116055
0.000340967 0.000635171 0.000193107
0.000442245 0.000964653 0.000290712
0.000568961 0.00118686 0.000354835
0.000658329 0.0014752 0.000436997
0.000702656 0.00214587 0.000628246
0.000727674 0.00286005 0.000838165
0.000731291 0.00359682 0.00106334
0.000709708 0.00433522 0.0012995
0.000658374 0.00505011 0.0015407
0.000576674 0.00570957 0.00177921
0.000480187 0.00599947 0.00187935
0.000375487 0.00624742 0.0019407
0.000274464 0.0066388 0.00201237
0.000179744 0.00691597 0.00206903
8.64117e-05 0.00708571 0.00211962
-3.77986e-06 0.00712476 0.00213001
-9.27949e-05 0.00711433 0.00212535
-0.000183825 0.00706546 0.00211058
-0.000274711 0.00687849 0.00205235
-0.000370651 0.00658863 0.00198949
-0.000469317 0.00619053 0.0019135
-0.00055966 0.0059424 0.00185149
-0.000636049 0.00565519 0.00175259
-0.00068371 0.0050066 0.00151896
-0.000703162 0.00430672 0.00128343
-0.000698972 0.00358569 0.00105305
-0.000674887 0.00286681 0.000833148
-0.000632881 0.0021692 0.00062755
-0.000548144 0.00151182 0.000439551
-0.000427488 0.0012271 0.000358292
-0.000330626 0.0010049 0.00029402
-0.0002689 0.000669778 0.000195182
-0.00022319 0.000404643 0.000117193
-0.000199228 0.000189585 5.45929e-05
0 0 0
0.000385312 0 0
0.000436019 0.000126536 0.000101878
0.00053449 0.000281247 0.000220122
0.000670572 0.00049569 0.000370472
0.000885419 0.000803072 0.000565558
0.00114355 0.00103325 0.000696494
0.00132576 0.00132787 0.000864912
0.0014125 0.00202107 0.00125834
0.0014595 0.00274988 0.00169087
0.00146461 0.00349116 0.0021561
0.00141988 0.00422732 0.00264703
0.00131398 0.00493583 0.00315295
0.00115363 0.00558305 0.00365681
0.000973998 0.00587026 0.00386978
0.000766062 0.00612947 0.0040026
0.000552743 0.00654934 0.00415718
0.000352593 0.00683469 0.00427485
0.000169079 0.0069927 0.00437696
-8.22195e-06 0.00702914 0.00439747
-0.000183209 0.00701911 0.00438755
-0.00036217 0.00697319 0.00435769
-0.000554362 0.00679839 0.00423926
-0.000757113 0.00650126 0.00410849
-0.000953068 0.00607629 0.00394515
-0.00112102 0.00581749 0.00381121
-0.00127089 0.00553279 0.00360103
-0.00136925 0.00489561 0.00310776
-0.00140954 0.00420168 0.00261407
-0.0014031 0.00348284 0.00213546
-0.0013578 0.00275995 0.00168136
-0.00127569 0.0020488 0.00125774
-0.00110313 0.00137022 0.000870607
-0.000857529 0.00107926 0.000703727
-0.000651503 0.000848425 0.000572171
-0.00051992 0.000534015 0.000374299
-0.000424226 0.00030885 0.000222082
-0.00037484 0.000140958 0.00010268
0 0 0
0.000514946 0 0
0.00059292 4.99561e-05 0.000136726
0.000749426 0.000125045 0.000299196
0.000976226 0.000263005 0.00051418
0.00134232 0.000527733 0.000806553
0.00172827 0.000801423 0.00101213
0.00201311 0.00109635 0.00127501
0.00213436 0.00183727 0.00189418
0.00219326 0.00258456 0.00257515
0.00219318 0.00331741 0.00330902
0.00212122 0.00402884 0.00408972
0.00195501 0.00470331 0.00490496
0.00172299 0.00530808 0.00572562
0.0014882 0.005579 0.00607724
0.00118316 0.00584422 0.00630689
0.00083744 0.00629414 0.00657702
0.000512096 0.00658871 0.0067669
0.000245019 0.00673302 0.00691836
-1.36597e-05 0.00676759 0.00694757
-0.000269025 0.00675902 0.00693119
-0.000529521 0.00671625 0.00688652