<?xml version="1.0"?>
<VTKFile type="RectilinearGrid" version="0.1" byte_order="LittleEndian">
<RectilinearGrid WholeExtent="0 37 0 14 0 34">
<Piece Extent="0 37 0 14 0 34">
<PointData>
<DataArray type="Float32" Name="MVP" NumberOfComponents="3" format="ascii">
0 0 0
0 0 0
0 0 0
0 0 0
0 0 0
0 0 0
0 0 0
0 0 0
0 0 0
0 0 0
0 0 0
0 0 0
0 0 0
0 0 0
0 0 0
0 0 0
0 0 0
0 0 0
0 0 0
0 0 0
0 0 0
0 0 0
0 0 0
0 0 0
0 0 0
0 0 0
0 0 0
0 0 0
0 0 0
0 0 0
0 0 0
0 0 0
0 0 0
0 0 0
0 0 0
0 0 0
0 0 0
0 0 0
0 0 0
0 0 -2.9289e-05
0 0 -6.16983e-05
0 0 -9.98966e-05
0 0 -0.000145578
0 0 -0.000174291
0 0 -0.000210958
0 0 -0.000295283
0 0 -0.000383586
0 0 -0.00047357
0 0 -0.000562423
0 0 -0.000646081
0 0 -0.000718682
0 0 -0.000751212
0 0 -0.000784631
0 0 -0.000841428
0 0 -0.000878274
0 0 -0.000895391
0 0 -0.000899708
0 0 -0.000899536
0 0 -0.000895057
0 0 -0.000877653
0 0 -0.000840585
0 0 -0.000783654
0 0 -0.000750218
0 0 -0.000717728
0 0 -0.000645305
0 0 -0.000561895
0 0 -0.000473326
0 0 -0.000383616
0 0 -0.000295533
0 0 -0.000211341
0 0 -0.000174688
0 0 -0.000145941
0 0 -0.000100149
0 0 -6.18506e-05
0 0 -2.93595e-05
0 0 0
0 0 0
0 0 -5.4734e-05
0 0 -0.000115629
0 0 -0.000187898
0 0 -0.000274511
0 0 -0.000328986
0 0 -0.000399221
0 0 -0.000561532
0 0 -0.000730592
0 0 -0.000902414
0 0 -0.0010716
0 0 -0.00122943
0 0 -0.0013616
0 0 -0.00142092
0 0 -0.00148769
0 0 -0.00160341
0 0 -0.00167419
0 0 -0.00170052
0 0 -0.00170753
0 0 -0.00170719
0 0 -0.00169986
0 0 -0.00167295
0 0 -0.00160173
0 0 -0.00148574
0 0 -0.00141894
0 0 -0.0013597
0 0 -0.00122789
0 0 -0.00107056
0 0 -0.000901947
0 0 -0.000730681
0 0 -0.00056206
0 0 -0.000399995
0 0 -0.000329766
0 0 -0.000275206
0 0 -0.000188364
0 0 -0.000115903
0 0 -5.48588e-05
0 0 0
0 0 0
0 0 -7.22508e-05
0 0 -0.00015324
0 0 -0.000250092
0 0 -0.000365406
0 0 -0.000436626
0 0 -0.000529458
0 0 -0.000747322
0 0 -0.000972284
0 0 -0.00120039
0 0 -0.00142437
0 0 -0.00162983
0 0 -0.00178688
0 0 -0.00185683
0 0 -0.00195459
0 0 -0.00212963
0 0 -0.0022247
0 0 -0.00224055
0 0 -0.00224674
0 0 -0.00224622
0 0 -0.00223954
0 0 -0.00222283
0 0 -0.00212711
0 0 -0.0019517
0 0 -0.0018539
0 0 -0.00178406
0 0 -0.00162753
0 0 -0.00142281
0 0 -0.0011997
0 0 -0.000972438
0 0 -0.000748145
0 0 -0.000530599
0 0 -0.00043771
0 0 -0.000366329
0 0 -0.000250672
0 0 -0.000153566
0 0 -7.23958e-05
0 0 0
0 0 0
0 0 -7.75644e-05
0 0 -0.000165009
0 0 -0.000269352
0 0 -0.000387158
0 0 -0.000449857
0 0 -0.000529354
0 0 -0.000731518
0 0 -0.000940216
0 0 -0.00115406
0 0 -0.00136508
0 0 -0.00155487
0 0 -0.00166336
0 0 -0.00170636
0 0 -0.00182117
0 0 -0.00203373
0 0 -0.0021254
0 0 -0.00209541
0 0 -0.00209684
0 0 -0.00209614
0 0 -0.00209406
0 0 -0.00212288
0 0 -0.00203034
0 0 -0.00181732
0 0 -0.00170245
0 0 -0.00165959
0 0 -0.00155172
0 0 -0.00136287
0 0 -0.00115297
0 0 -0.000940248
0 0 -0.000732471
0 0 -0.000530671
0 0 -0.000450966
0 0 -0.000388032
0 0 -0.000269857
0 0 -0.000165279
0 0 -7.76806e-05
0 0 0
0 0 0
0 0 -7.03808e-05
0 0 -0.000149843
0 0 -0.00024397
0 0 -0.000342743
0 0 -0.000370483
0 0 -0.000373963
0 0 -0.000429214
0 0 -0.000517218
0 0 -0.000618095
0 0 -0.000723141
0 0 -0.000826796
0 0 -0.000923682
0 0 -0.000967411
0 0 -0.00100735
0 0 -0.00107437
0 0 -0.00112216
0 0 -0.00115032
0 0 -0.00115714
0 0 -0.00115633
0 0 -0.00114874
0 0 -0.0011192
0 0 -0.0010704
0 0 -0.00100288
0 0 -0.000962894
0 0 -0.000919258
0 0 -0.000822939
0 0 -0.000720224
0 0 -0.000616335
0 0 -0.000516667
0 0 -0.000429736
0 0 -0.000375051
0 0 -0.000371266
0 0 -0.000343359
0 0 -0.000244327
0 0 -0.000150035
0 0 -7.04643e-05
0 0 0
0 0 0
0 0 -5.17684e-05
0 0 -0.000110441
0 0 -0.000180598
0 0 -0.000257573
0 0 -0.00029359
0 0 -0.000266632
0 0 -0.00026766
0 0 -0.000304553
0 0 -0.000353556
0 0 -0.000406864
0 0 -0.000460485
0 0 -0.000511223
0 0 -0.000534349
0 0 -0.000555625
0 0 -0.000591756
0 0 -0.000617784
0 0 -0.000633122
0 0 -0.000636757
0 0 -0.000635981
0 0 -0.000631607
0 0 -0.000614936
0 0 -0.000587936
0 0 -0.000551313
0 0 -0.000529986
0 0 -0.000506938
0 0 -0.000456707
0 0 -0.00040393
0 0 -0.000351655
0 0 -0.000303715
0 0 -0.000267726
0 0 -0.000267092
0 0 -0.000293796
0 0 -0.000257791
0 0 -0.000180762
0 0 -0.000110542
0 0 -5.18148e-05
0 0 0
0 0 0
0 0 -1.03383e-08
0 0 -2.41077e-08
0 0 -4.74228e-08
0 0 -9.41537e-08
0 0 -1.49146e-07
0 0 -1.46078e-07
0 0 -1.42536e-07
0 0 -1.3667e-07
0 0 -1.2894e-07
0 0 -1.19182e-07
0 0 -1.07077e-07
0 0 -9.23063e-08
0 0 -8.36077e-08
0 0 -7.38992e-08
0 0 -5.19611e-08
0 0 -2.7368e-08
0 0 -4.67343e-10
0 0 1.37212e-08
0 0 4.33423e-08
0 0 5.85091e-08
0 0 8.93084e-08
0 0 1.20596e-07
0 0 1.5177e-07
0 0 1.66672e-07
0 0 1.80602e-07
0 0 2.0658e-07
0 0 2.30997e-07
0 0 2.53601e-07
0 0 2.74008e-07
0 0 2.91599e-07
0 0 3.05074e-07
0 0 3.09009e-07
0 0 1.88119e-07
0 0 8.9223e-08
0 0 4.28523e-08
0 0 1.76583e-08
0 0 0
0 0 0
0 0 5.17479e-05
0 0 0.000110393
0 0 0.000180503
0 0 0.00025738
0 0 0.000293286
0 0 0.000266337
0 0 0.000267375
0 0 0.000304279
0 0 0.000353297
0 0 0.000406625
0 0 0.000460269
0 0 0.000511035
0 0 0.000534179
0 0 0.000555475
0 0 0.000591649
0 0 0.000617727
0 0 0.000633119
0 0 0.000636782
0 0 0.000636066
0 0 0.000631722
0 0 0.000615114
0 0 0.000588177
0 0 0.000551617
0 0 0.00053032
0 0 0.0005073
0 0 0.00045712
0 0 0.000404393
0 0 0.000352163
0 0 0.000304264
0 0 0.000268312
0 0 0.000267711
0 0 0.000294428
0 0 0.000258178
0 0 0.000180943
0 0 0.000110628
0 0 5.185e-05
0 0 0
0 0 0
0 0 7.03613e-05
0 0 0.000149797
0 0 0.00024388
0 0 0.000342555
0 0 0.000370166
0 0 0.00037366
0 0 0.000428924
0 0 0.000516941
0 0 0.000617834
0 0 0.000722899
0 0 0.000826578
0 0 0.000923492
0 0 0.000967238
0 0 0.0010072
0 0 0.00107426
0 0 0.00112211
0 0 0.00115032
0 0 0.00115716
0 0 0.00115641
0 0 0.00114886
0 0 0.00111938
0 0 0.00107064
0 0 0.00100318
0 0 0.000963232
0 0 0.000919624
0 0 0.000823356
0 0 0.000720689
0 0 0.000616846
0 0 0.00051722
0 0 0.000430326
0 0 0.00037568
0 0 0.000371927
0 0 0.000343736
0 0 0.000244499
0 0 0.000150117
0 0 7.04978e-05
0 0 0
0 0 0
0 0 7.75472e-05
0 0 0.00016497
0 0 0.000269278
0 0 0.00038702
0 0 0.000449671
0 0 0.000529163
0 0 0.000731339
0 0 0.000940045
0 0 0.0011539
0 0 0.00136493
0 0 0.00155473
0 0 0.00166324
0 0 0.00170624
0 0 0.00182107
0 0 0.00203366
0 0 0.00212536
0 0 0.00209541
0 0 0.00209685
0 0 0.0020962
0 0 0.00209413
0 0 0.00212299
0 0 0.00203049
0 0 0.00181751
0 0 0.00170267
0 0 0.00165982
0 0 0.00155197
0 0 0.00136315
0 0 0.00115327
0 0 0.000940578
0 0 0.000732824
0 0 0.000531053
0 0 0.000451341
0 0 0.000388301
0 0 0.000269995
0 0 0.000165348
0 0 7.77099e-05
0 0 0
0 0 0
0 0 7.22388e-05
0 0 0.000153213
0 0 0.000250046
0 0 0.000365332
0 0 0.000436536
0 0 0.000529365
0 0 0.000747232
0 0 0.000972198
0 0 0.00120031
0 0 0.00142429
0 0 0.00162977
0 0 0.00178681
0 0 0.00185677
0 0 0.00195454
0 0 0.0021296
0 0 0.00222468
0 0 0.00224055
0 0 0.00224674
0 0 0.00224625
0 0 0.00223958
0 0 0.00222289
0 0 0.00212719
0 0 0.00195179
0 0 0.001854
0 0 0.00178417
0 0 0.00162766
0 0 0.00142294
0 0 0.00119984
0 0 0.000972594
0 0 0.000748312
0 0 0.000530776
0 0 0.00043788
0 0 0.000366466
0 0 0.000250754
0 0 0.000153611
0 0 7.24155e-05
0 0 0
0 0 0
0 0 5.47266e-05
0 0 0.000115613
0 0 0.000187872
0 0 0.000274472
0 0 0.000328941
0 0 0.000399174
0 0 0.000561486
0 0 0.000730548
0 0 0.000902372
0 0 0.00107156
0 0 0.00122939
0 0 0.00136156
0 0 0.00142089
0 0 0.00148766
0 0 0.0016034
0 0 0.00167418
0 0 0.00170052
0 0 0.00170753
0 0 0.0017072
0 0 0.00169987
0 0 0.00167298
0 0 0.00160177
0 0 0.00148579
0 0 0.001419
0 0 0.00135976
0 0 0.00122795
0 0 0.00107063
0 0 0.000902017
0 0 0.000730756
0 0 0.00056214
0 0 0.000400078
0 0 0.000329846
0 0 0.000275275
0 0 0.000188408
0 0 0.000115928
0 0 5.48707e-05
0 0 0
0 0 0
0 0 2.92855e-05
0 0 6.16908e-05
0 0 9.98846e-05
0 0 0.000145561
0 0 0.000174272
0 0 0.000210938
0 0 0.000295263
0 0 0.000383566
0 0 0.000473551
0 0 0.000562406
0 0 0.000646065
0 0 0.000718668
0 0 0.000751199
0 0 0.000784619
0 0 0.00084142
0 0 0.00087827
0 0 0.000895391
0 0 0.000899709
0 0 0.000899542
0 0 0.000895065
0 0 0.000877665
0 0 0.000840601
0 0 0.000783674
0 0 0.000750241
0 0 0.000717752
0 0 0.00064533
0 0 0.000561923
0 0 0.000473355
0 0 0.000383647
0 0 0.000295566
0 0 0.000211375
0 0 0.000174721
0 0 0.00014597
0 0 0.000100168
0 0 6.18624e-05
0 0 2.93651e-05
0 0 0
0 0 0
0 0 0
0 0 0
0 0 0
0 0 0
0 0 0
0 0 0
0 0 0
0 0 0
0 0 0
0 0 0
0 0 0
0 0 0
0 0 0
0 0 0
0 0 0
0 0 0
0 0 0
0 0 0
0 0 0
0 0 0
0 0 0
0 0 0
0 0 0
0 0 0
0 0 0
0 0 0
0 0 0
0 0 0
0 0 0
0 0 0
0 0 0
0 0 0
0 0 0
0 0 0
0 0 0
0 0 0
0 0 0
0 0 0
0 -2.92246e-05 0
0 -6.15718e-05 0
0 -9.9713e-05 0
0 -0.000145347 0
0 -0.00017404 0
0 -0.000210693 0
0 -0.000295003 0
0 -0.000383307 0
0 -0.000473306 0
0 -0.000562181 0
0 -0.000645865 0
0 -0.000718497 0
0 -0.000751043 0
0 -0.00078448 0
0 -0.000841315 0
0 -0.000878204 0
0 -0.000895366 0
0 -0.000899705 0
0 -0.000899578 0
0 -0.00089512 0
0 -0.000877751 0
0 -0.000840708 0
0 -0.000783789 0
0 -0.000750355 0
0 -0.000717864 0
0 -0.000645431 0
0 -0.000562011 0
0 -0.000473435 0
0 -0.000383734 0
0 -0.000295678 0
0 -0.000211524 0
0 -0.000174887 0
0 -0.00014615 0
0 -0.000100354 0
0 -6.20139e-05 0
0 -2.94494e-05 0
0 0 0
-2.92923e-05 0 0
-3.2413e-05 -2.53802e-05 -3.02012e-05
-3.82037e-05 -5.38022e-05 -6.41925e-05
-4.56917e-05 -8.78136e-05 -0.000105457
-5.74426e-05 -0.000128691 -0.000156587
-7.33578e-05 -0.000154432 -0.000189698
-8.43604e-05 -0.000187983 -0.000231591
-8.83528e-05 -0.000265953 -0.000326867
-9.00475e-05 -0.000346715 -0.000427571
-8.89262e-05 -0.000428571 -0.000531368
-8.37378e-05 -0.000508932 -0.000636078
-7.26876e-05 -0.000583128 -0.000739084
-6.51487e-05 -0.000642724 -0.000837105
-6.69306e-05 -0.000669531 -0.000880174
-5.68927e-05 -0.000702902 -0.000914278
-3.69465e-05 -0.00076187 -0.000966703
-1.72209e-05 -0.000795842 -0.00100695
-8.73873e-06 -0.000805106 -0.0010359
6.48183e-08 -0.000807819 -0.00104293
8.85048e-06 -0.000807693 -0.00104274
1.72974e-05 -0.000804862 -0.00103552
3.69629e-05 -0.000795394 -0.00100624
5.6828e-05 -0.000761272 -0.000965747
6.67662e-05 -0.000702226 -0.000913167
6.48753e-05 -0.000668859 -0.000879045
7.23159e-05 -0.000642105 -0.00083602
8.32923e-05 -0.000582702 -0.000738204
8.8437e-05 -0.000508767 -0.000635489
8.95559e-05 -0.000428709 -0.00053111
8.79054e-05 -0.00034716 -0.000427633
8.3999e-05 -0.000266657 -0.000327187
7.31172e-05 -0.000188843 -0.000232069
5.73141e-05 -0.000155294 -0.000190184
4.56321e-05 -0.000129501 -0.000157018
3.81712e-05 -8.84545e-05 -0.000105744
3.23914e-05 -5.42424e-05 -6.43609e-05
2.92744e-05 -2.56037e-05 -3.02779e-05
0 0 0
-5.47384e-05 0 0
-6.08989e-05 -1.7452e-05 -5.6962e-05
-7.22752e-05 -3.74816e-05 -0.000121861
-8.66245e-05 -6.19991e-05 -0.000202349
-0.000108976 -9.06347e-05 -0.000304703
-0.000140508 -0.00010735 -0.00037272
-0.000162374 -0.000129925 -0.000458988
-0.000169157 -0.000185461 -0.000654435
-0.000171945 -0.000241374 -0.000859853
-0.000169331 -0.000297686 -0.00107068
-0.00015798 -0.0003525 -0.00128308
-0.000132333 -0.000400174 -0.00149235
-0.000118811 -0.000425081 -0.00169263
-0.000133722 -0.000435733 -0.00178093
-0.000115908 -0.00046674 -0.00185041
-7.09664e-05 -0.000526089 -0.00195724
-2.65309e-05 -0.000550428 -0.00203952
-1.4211e-05 -0.000539992 -0.00209911
1.42205e-07 -0.000539199 -0.00211348
1.44594e-05 -0.000539075 -0.0021131
2.67078e-05 -0.000539751 -0.00209836
7.10193e-05 -0.000549987 -0.00203812
0.000115796 -0.000525506 -0.00195533
0.000133412 -0.000466089 -0.00184821
0.000118288 -0.000435087 -0.0017787
0.000131613 -0.000424481 -0.00169049
0.00015711 -0.000399745 -0.00149063
0.000168368 -0.000352312 -0.00128195
0.000170971 -0.000297793 -0.00107024
0.000168272 -0.000241798 -0.000860078
0.000161676 -0.000186174 -0.000655189
0.000140074 -0.000130802 -0.000460034
0.000108757 -0.000108199 -0.000373735
8.65259e-05 -9.14216e-05 -0.000305567
7.22205e-05 -6.26226e-05 -0.000202892
6.08603e-05 -3.79116e-05 -0.000122168
5.4705e-05 -1.76712e-05 -5.70988e-05
0 0 0
-7.22532e-05 0 0
-8.09892e-05 -5.2509e-06 -7.66183e-05
-9.68497e-05 -1.16434e-05 -0.000165816
-0.000115313 -1.90647e-05 -0.000280936
-0.000142454 -2.14705e-05 -0.000435382
-0.000185701 -1.29008e-05 -0.00054453
-0.000217944 4.76786e-07 -0.000682598
-0.000225098 1.61894e-05 -0.000992469
-0.000228286 3.24248e-05 -0.00131337
-0.000224175 4.66471e-05 -0.00163958
-0.000205687 5.95622e-05 -0.00196704
-0.000157274 7.52115e-05 -0.00229004
-0.000140149 0.000123727 -0.0026026
-0.000195767 0.000150667 -0.00274143
-0.000175286 0.000133595 -0.00284886
-9.53296e-05 9.60365e-05 -0.00301455
-1.61141e-05 9.93898e-05 -0.00314359
-1.26444e-05 0.000145169 -0.00323887
2.47684e-07 0.000149907 -0.00326134
1.30857e-05 0.000150033 -0.00326077
1.64463e-05 0.000145414 -0.00323775
9.54658e-05 9.98464e-05 -0.00314149
0.000175165 9.66339e-05 -0.00301172
0.000195358 0.000134245 -0.00284564
0.000139433 0.000151315 -0.00273819
0.000156271 0.000124353 -0.00259949
0.000204451 7.57382e-05 -0.00228757
0.000222786 5.99184e-05 -0.0019655
0.000226863 4.67658e-05 -0.00163913
0.000223798 3.22465e-05 -0.00131398
0.000216959 1.56778e-05 -0.000993943
0.000185189 -2.66473e-07 -0.000684463
0.000142214 -1.35899e-05 -0.000546146
0.000115205 -2.21324e-05 -0.000436634
9.67852e-05 -1.96297e-05 -0.000281645
8.09386e-05 -1.20494e-05 -0.00016619
7.22072e-05 -5.46214e-06 -7.67792e-05
0 0 0
-7.75636e-05 0 0
-8.74397e-05 1.44266e-05 -8.52765e-05
-0.000104328 3.04515e-05 -0.00018766
-0.000117777 5.09487e-05 -0.000328274
-0.000125371 8.9114e-05 -0.000536637
-0.000158991 0.000159118 -0.000707669
-0.000202253 0.000311243 -0.000917607
-0.000208873 0.00060506 -0.00138166
-0.000214072 0.000846392 -0.00184461
-0.000211271 0.00107228 -0.00230722
-0.00019005 0.00128417 -0.0027679
-0.000108768 0.00145639 -0.00322027
-8.62755e-05 0.00147957 -0.00366386
-0.000229915 0.00147809 -0.00386388
-0.00021284 0.00162782 -0.00401466
-9.19607e-05 0.00191885 -0.0042514
2.96905e-05 0.00200656 -0.00443869
-3.13556e-06 0.00189022 -0.00458052
4.08382e-07 0.00187941 -0.00461216
3.88242e-06 0.00187957 -0.00461142
-2.90882e-05 0.00189055 -0.00457908
9.22777e-05 0.00200723 -0.00443601
0.000212787 0.00191974 -0.00424781
0.000229497 0.00162873 -0.00401065
8.55009e-05 0.00147898 -0.0038599
0.000107635 0.00148054 -0.00366006
0.000188597 0.0014575 -0.00321732
0.000209595 0.00128531 -0.00276623
0.000212312 0.00107337 -0.00230708
0.000207222 0.000847332 -0.00184606
0.000201053 0.000605615 -0.00138447
0.000158604 0.000311108 -0.000920987
0.000125161 0.000158913 -0.000709897
0.000117664 8.87202e-05 -0.000538041
0.000104252 5.04762e-05 -0.000328935
8.73768e-05 3.00705e-05 -0.000187977
7.75067e-05 1.42198e-05 -8.54064e-05
0 0 0
-7.03793e-05 0 0
-7.9456e-05 3.7282e-05 -7.88662e-05
-9.41102e-05 7.89168e-05 -0.000175204
-9.87356e-05 0.00012692 -0.000313154
-5.54255e-05 0.000170612 -0.000538224
-6.91065e-06 0.000154161 -0.00078515
-5.53489e-05 0.000215222 -0.00106173
-8.82021e-05 0.000323607 -0.00168209
-0.000101126 0.000425749 -0.00225342
-0.000105318 0.000529429 -0.00281803
-0.000103938 0.000632848 -0.00337703
-9.71729e-05 0.000732873 -0.00391766
-8.77459e-05 0.000825133 -0.00441743
-8.0163e-05 0.00086632 -0.00464054
-6.73059e-05 0.000903625 -0.00484217
-4.80763e-05 0.000965363 -0.00517423
-2.84352e-05 0.00100884 -0.00540669
-1.38997e-05 0.00103443 -0.00554282
5.45405e-07 0.00104076 -0.00557642
1.49166e-05 0.00104063 -0.00557564
2.93074e-05 0.00103419 -0.0055413
4.85863e-05 0.0010084 -0.00540384
6.73316e-05 0.000964769 -0.00517044
7.9786e-05 0.00090297 -0.004838
8.70982e-05 0.000865673 -0.00463643
9.61505e-05 0.000824521 -0.00441355
0.00010253 0.000732414 -0.00391474
0.000103654 0.000632632 -0.00337558
9.93359e-05 0.000529516 -0.00281837
8.64327e-05 0.000426158 -0.00225569
5.39351e-05 0.000324292 -0.00168627
6.63389e-06 0.000215908 -0.00106748
5.51268e-05 0.00015421 -0.00078735
9.85772e-05 0.000170353 -0.000539287
9.401e-05 0.000126461 -0.000313619
7.93832e-05 7.85224e-05 -0.000175427
7.03182e-05 3.70654e-05 -7.89584e-05
0 0 0
-5.17667e-05 0 0
-5.86675e-05 5.18122e-05 -5.80319e-05
-7.01421e-05 0.000110524 -0.000129199
-7.69437e-05 0.000180714 -0.000230996
-7.19942e-05 0.000257739 -0.000391212
5.3957e-05 0.000293817 -0.000536059
-1.02137e-06 0.000267081 5.56857e-06
-3.69492e-05 0.000268066 0.000146646
-4.90998e-05 0.000304866 0.00023111
-5.34271e-05 0.000353793 0.000318018
-5.37497e-05 0.000407049 0.00040186
-5.08701e-05 0.000460633 0.000480138
-4.63855e-05 0.000511345 0.000549861
-4.2685e-05 0.00053446 0.000580125
-3.62609e-05 0.000555726 0.00060707
-2.61534e-05 0.000591835 0.000650574
-1.54564e-05 0.000617837 0.000680861
-7.38364e-06 0.000633144 0.000699044
6.68057e-07 0.000636764 0.000703895
8.6445e-06 0.000635959 0.00070524
1.65713e-05 0.000631574 0.000701669
2.69039e-05 0.000614891 0.000685788
3.65271e-05 0.0005879 0.000657159
4.25544e-05 0.000551314 0.00061445
4.5992e-05 0.000530018 0.000587553
5.01171e-05 0.000507008 0.000557117
5.26404e-05 0.000456879 0.000486468
5.21027e-05 0.000404234 0.000406762
4.7707e-05 0.000352108 0.000321254
3.56642e-05 0.00030431 0.000232676
1.99466e-07 0.000268371 0.000146697
-5.38559e-05 0.000267401 4.56741e-06
7.15865e-05 0.000293334 -0.000534647
7.67058e-05 0.000257099 -0.000391123
7.0013e-05 0.000180096 -0.000231139
5.85901e-05 0.00011007 -0.000129308
5.17085e-05 5.15756e-05 -5.80837e-05
0 0 0
-1.05878e-08 0 0
-1.40375e-08 5.18124e-05 -6.24308e-09
-2.36248e-08 0.000110524 -1.23495e-08
-4.71151e-08 0.000180714 -1.72628e-08
-1.10472e-07 0.000257735 -1.69026e-08
5.55506e-09 0.000293811 -6.86384e-09
2.80936e-09 0.000267078 1.20789e-08
4.94001e-09 0.000268066 -9.46968e-10
6.64373e-09 0.000304866 -6.71389e-10
8.55388e-09 0.000353792 -2.32939e-10
1.08311e-08 0.000407047 4.85478e-11
1.34729e-08 0.000460632 2.75299e-10
1.61136e-08 0.000511342 4.59149e-10
1.81526e-08 0.000534457 5.15577e-10
2.0713e-08 0.000555723 5.20015e-10
2.34437e-08 0.000591832 4.76986e-10
2.5844e-08 0.000617835 3.77181e-10
2.73994e-08 0.000633142 2.25618e-10
2.87246e-08 0.000636762 1.30043e-10
2.95192e-08 0.000635957 -8.68006e-11
3.00668e-08 0.000631572 -1.96362e-10
3.06557e-08 0.00061489 -4.00486e-10
3.06358e-08 0.000587899 -6.26753e-10
2.93326e-08 0.000551315 -8.97391e-10
2.74381e-08 0.000530019 -1.04507e-09
2.56165e-08 0.000507009 -1.09587e-09
2.4123e-08 0.00045688 -1.19622e-09
2.23665e-08 0.000404234 -1.33048e-09
2.02203e-08 0.000352109 -1.46137e-09
1.74481e-08 0.000304311 -1.62503e-09
1.33722e-08 0.000268374 -2.34397e-09
7.79688e-09 0.00026741 -8.12719e-09
-2.41829e-07 0.000293349 -1.49337e-08
-9.89341e-08 0.00025711 1.22542e-08
-4.63983e-08 0.000180098 2.05876e-08
-2.52176e-08 0.00011007 1.61062e-08
-1.76796e-08 5.15755e-05 8.34688e-09
0 0 0
5.17458e-05 0 0
5.86394e-05 3.7284e-05 5.80197e-05
7.00941e-05 7.89215e-05 0.000129175
7.68456e-05 0.000126929 0.000230963
7.17699e-05 0.000170623 0.000391181
-5.39404e-05 0.000154137 0.000536047
1.03041e-06 0.000215208 -5.52855e-06
3.69596e-05 0.000323599 -0.000146629
4.9113e-05 0.000425743 -0.000231097
5.34441e-05 0.000529424 -0.00031801
5.37712e-05 0.000632844 -0.000401855
5.08968e-05 0.000732869 -0.000480136
4.64177e-05 0.000825128 -0.000549862
4.27221e-05 0.000866315 -0.000580128
3.63032e-05 0.000903621 -0.000607075
2.6201e-05 0.000965361 -0.000650581
1.55087e-05 0.00100884 -0.000680869
7.43916e-06 0.00103443 -0.000699054
-6.09865e-07 0.00104076 -0.000703906
-8.58476e-06 0.00104064 -0.000705251
-1.65105e-05 0.00103419 -0.00070168
-2.68418e-05 0.0010084 -0.0006858
-3.64647e-05 0.000964773 -0.000657172
-4.24947e-05 0.000902976 -0.000614464
-4.59372e-05 0.000865682 -0.000587567
-5.00661e-05 0.000824529 -0.000557131
-5.25919e-05 0.00073242 -0.000486482
-5.20576e-05 0.000632638 -0.000406777
-4.76661e-05 0.000529522 -0.000321268
-3.56275e-05 0.000426165 -0.000232691
-1.66472e-07 0.0003243 -0.000146713
5.38827e-05 0.000215929 -4.59294e-06
-7.20778e-05 0.000154265 0.000534611
-7.69126e-05 0.000170333 0.000391142
-7.01077e-05 0.000126444 0.000231178
-5.86408e-05 7.8514e-05 0.00012934
-5.17437e-05 3.70621e-05 5.81e-05
0 0 0
7.03593e-05 0 0
7.94294e-05 1.44312e-05 7.88545e-05
9.40645e-05 3.04641e-05 0.000175181
9.86383e-05 5.09813e-05 0.000313123
5.51662e-05 8.92142e-05 0.000538195
6.93761e-06 0.000159379 0.000785144
5.53619e-05 0.000311469 0.00106172
8.82139e-05 0.00060528 0.00168208
0.00010114 0.000846604 0.00225342
0.000105336 0.00107248 0.00281802
0.000103961 0.00128436 0.00337702
9.72006e-05 0.00145656 0.00391766
8.77786e-05 0.0014797 0.00441743
8.02028e-05 0.00147821 0.00464054
6.73503e-05 0.00162793 0.00484217
4.81254e-05 0.00191893 0.00517423
2.84888e-05 0.0020066 0.00540669
1.39566e-05 0.00189022 0.00554282
-4.8596e-07 0.00187939 0.00557642
-1.48558e-05 0.00187951 0.00557564
-2.9246e-05 0.00189047 0.0055413
-4.85234e-05 0.00200709 0.00540383
-6.72675e-05 0.00191955 0.00517044
-7.97234e-05 0.00162851 0.00483799
-8.70448e-05 0.00147874 0.00463642
-9.61001e-05 0.00148027 0.00441353
-0.000102481 0.00145717 0.00391472
-0.000103608 0.00128493 0.00337556
-9.92945e-05 0.00107295 0.00281835
-8.63952e-05 0.000846886 0.00225566
-5.38958e-05 0.00060514 0.00168624
-6.57308e-06 0.000310612 0.00106745
-5.5693e-05 0.000158344 0.000787306
-9.87826e-05 8.85052e-05 0.000539303
-9.41003e-05 5.04094e-05 0.000313656
-7.94313e-05 3.00461e-05 0.000175457
-7.03517e-05 1.42112e-05 7.8974e-05
0 0 0
7.7546e-05 0 0
8.7417e-05 -5.24559e-06 8.52658e-05
0.000104292 -1.16302e-05 0.000187639
0.000117713 -1.90358e-05 0.000328244
0.000125272 -2.14068e-05 0.000536604
0.000158984 -1.28036e-05 0.000707641
0.000202263 5.74015e-07 0.000917578
0.000208881 1.62794e-05 0.00138163
0.000214082 3.251e-05 0.00184458
0.000211282 4.67272e-05 0.00230719
0.000190063 5.96361e-05 0.00276788
0.000108781 7.52781e-05 0.00322024
8.62926e-05 0.000123787 0.00366384
0.000229943 0.000150723 0.00386387
0.000212872 0.000133643 0.00401465
9.19918e-05 9.60688e-05 0.00425139
-2.96576e-05 9.94066e-05 0.00443868
3.17136e-06 0.000145169 0.00458052
-3.70889e-07 0.000149898 0.00461216
-3.84495e-06 0.000150005 0.00461143
2.91234e-05 0.000145376 0.00457909
-9.22387e-05 9.97904e-05 0.00443602
-0.000212741 9.6558e-05 0.00424782
-0.000229452 0.000134145 0.00401067
-8.54756e-05 0.000151204 0.00385991
-0.000107614 0.000124235 0.00366008
-0.000188571 7.5608e-05 0.00321734
-0.000209568 5.9773e-05 0.00276626
-0.000212287 4.66059e-05 0.00230711
-0.000207198 3.2073e-05 0.00184608
-0.000201025 1.54909e-05 0.00138449
-0.000158617 -4.71827e-07 0.000921006
-0.000125373 -1.37955e-05 0.000709914
-0.000117795 -2.22643e-05 0.000538073
-0.000104321 -1.96868e-05 0.000328972
-8.7417e-05 -1.20742e-05 0.000188005
-7.7536e-05 -5.47167e-06 8.54207e-05
0 0 0
7.22408e-05 0 0
8.09745e-05 -1.74474e-05 7.66101e-05
9.68297e-05 -3.74709e-05 0.000165799
0.000115284 -6.19791e-05 0.000280912
0.000142422 -9.05991e-05 0.000435352
0.000185694 -0.000107305 0.000544499
0.000217947 -0.000129878 0.000682566
0.000225102 -0.000185417 0.000992436
0.000228291 -0.000241332 0.00131333
0.000224181 -0.000297647 0.00163955
0.000205693 -0.000352463 0.00196701
0.00015728 -0.00040014 0.00229001
0.000140157 -0.000425051 0.00260258
0.000195782 -0.000435705 0.00274141
0.000175302 -0.000466716 0.00284884
9.53455e-05 -0.000526073 0.00301453
1.61308e-05 -0.00055042 0.00314358
1.26623e-05 -0.000539992 0.00323887
-2.29122e-07 -0.000539203 0.00326134
-1.30674e-05 -0.000539089 0.00326077
-1.6429e-05 -0.00053977 0.00323776
-9.54465e-05 -0.000550014 0.00314151
-0.000175142 -0.000525543 0.00301174
-0.000195336 -0.000466138 0.00284566
-0.000139421 -0.000435141 0.00273822
-0.000156262 -0.000424538 0.00259952
-0.00020444 -0.000399807 0.0022876
-0.000222775 -0.00035238 0.00196553
-0.000226852 -0.000297868 0.00163916
-0.000223788 -0.000241879 0.00131402
-0.000216949 -0.00018626 0.000993983
-0.000185202 -0.000130895 0.000684501
-0.000142278 -0.000108289 0.000546182
-0.000115261 -9.14906e-05 0.000436671
-9.68221e-05 -6.26595e-05 0.000281676
-8.09635e-05 -3.79302e-05 0.000166212
-7.22269e-05 -1.7679e-05 7.67902e-05
0 0 0
5.47307e-05 0 0
6.08903e-05 -2.53762e-05 5.69566e-05
7.22646e-05 -5.37936e-05 0.00012185
8.66114e-05 -8.77991e-05 0.000202333
0.000108964 -0.000128669 0.000304682
0.000140504 -0.000154406 0.000372698
0.000162375 -0.000187956 0.000458964
0.000169159 -0.000265926 0.00065441
0.000171947 -0.00034669 0.000859829
0.000169334 -0.000428547 0.00107065
0.000157983 -0.00050891 0.00128306
0.000132336 -0.000583107 0.00149233
0.000118816 -0.000642706 0.00169261
0.000133729 -0.000669514 0.00178092
0.000115916 -0.000702888 0.0018504
7.09747e-05 -0.00076186 0.00195723
2.65395e-05 -0.000795837 0.00203952
1.42201e-05 -0.000805106 0.00209911
-1.32835e-07 -0.000807821 0.00211348
-1.44502e-05 -0.0008077 0.0021131
-2.66991e-05 -0.000804872 0.00209837
-7.10097e-05 -0.00079541 0.00203813
-0.000115785 -0.000761293 0.00195535
-0.000133401 -0.000702254 0.00184823
-0.000118282 -0.00066889 0.00177872
-0.000131609 -0.000642138 0.00169051
-0.000157104 -0.000582737 0.00149065
-0.000168363 -0.000508805 0.00128198
-0.000170966 -0.00042875 0.00107027
-0.000168267 -0.000347204 0.000860109
-0.000161672 -0.000266704 0.00065522
-0.000140081 -0.000188892 0.000460065
-0.00010878 -0.000155342 0.000373765
-8.65502e-05 -0.00012954 0.000305595
-7.2239e-05 -8.84793e-05 0.000202914
-6.08744e-05 -5.42565e-05 0.000122182
-5.47169e-05 -2.56101e-05 5.71061e-05
0 0 0
2.92887e-05 0 0
3.2409e-05 -2.92209e-05 3.01985e-05
3.81991e-05 -6.15642e-05 6.41871e-05
4.56865e-05 -9.97008e-05 0.000105449
5.74381e-05 -0.000145329 0.000156576
7.33561e-05 -0.000174021 0.000189686
8.43605e-05 -0.000210673 0.000231579
8.83533e-05 -0.000294983 0.000326855
9.00484e-05 -0.000383288 0.000427558
8.89273e-05 -0.000473287 0.000531356
8.37392e-05 -0.000562163 0.000636067
7.26891e-05 -0.000645849 0.000739074
6.51508e-05 -0.000718483 0.000837096
6.69338e-05 -0.00075103 0.000880166
5.68963e-05 -0.000784468 0.000914271
3.69501e-05 -0.000841307 0.000966697
1.72246e-05 -0.0008782 0.00100694
8.74264e-06 -0.000895366 0.0010359
-6.08037e-08 -0.000899707 0.00104293
-8.84654e-06 -0.000899584 0.00104274
-1.72936e-05 -0.000895127 0.00103552
-3.69587e-05 -0.000877763 0.00100625
-5.68234e-05 -0.000840724 0.000965755
-6.67619e-05 -0.000783809 0.000913177
-6.48728e-05 -0.000750378 0.000879056
-7.23141e-05 -0.000717888 0.000836032
-8.32902e-05 -0.000645457 0.000738217
-8.84349e-05 -0.000562038 0.000635503
-8.9554e-05 -0.000473465 0.000531125
-8.79039e-05 -0.000383765 0.000427649
-8.39979e-05 -0.000295711 0.000327203
-7.31197e-05 -0.000211559 0.000232085
-5.73222e-05 -0.00017492 0.000190199
-4.56414e-05 -0.000146179 0.000157032
-3.81789e-05 -0.000100374 0.000105754
-3.23977e-05 -6.20257e-05 6.43682e-05
-2.928e-05 -2.9455e-05 3.02815e-05
0 0 0
0 0 0
0 0 0
0 0 0
0 0 0
0 0 0
0 0 0
0 0 0
0 0 0
0 0 0
0 0 0
0 0 0
0 0 0
0 0 0
0 0 0
0 0 0
0 0 0
0 0 0
0 0 0
0 0 0
0 0 0
0 0 0
0 0 0
0 0 0
0 0 0
0 0 0
0 0 0
0 0 0
0 0 0
0 0 0
0 0 0
0 0 0
0 0 0
0 0 0
0 0 0
0 0 0
0 0 0
0 0 0
0 0 0
0 0 0
0 -0.00010958 0
0 -0.000232398 0
0 -0.00038042 0
0 -0.000562271 0
0 -0.000679213 0
0 -0.000827546 0
0 -0.00116589 0
0 -0.00152276 0
0 -0.00188959 0
0 -0.00225776 0
0 -0.00261619 0
0 -0.00295029 0
0 -0.00309773 0
0 -0.00322215 0
0 -0.00341889 0
0 -0.00356321 0
0 -0.0036577 0
0 -0.00368087 0
0 -0.00368036 0
0 -0.0036567 0
0 -0.00356137 0
0 -0.00341641 0
0 -0.00321932 0
0 -0.0030949 0
0 -0.00294767 0
0 -0.00261437 0
0 -0.002257 0
0 -0.00189006 0
0 -0.00152443 0
0 -0.00116858 0
0 -0.000830885 0
0 -0.000682599 0
0 -0.00056545 0
0 -0.000382912 0
0 -0.000234097 0
0 -0.00011044 0
0 0 0
-0.000109847 0 0
-0.000123076 -9.65592e-05 -2.9884e-05
-0.000148267 -0.000207224 -6.41658e-05
-0.000182078 -0.000345669 -0.000106887
-0.000234099 -0.000522998 -0.000160991
-0.000296876 -0.000641764 -0.000196018
-0.00033855 -0.000793602 -0.000239843
-0.000357063 -0.00113867 -0.000340121
-0.000367043 -0.00149869 -0.000448988
-0.000368383 -0.00186601 -0.000565191
-0.000358667 -0.00223362 -0.000687558
-0.000334341 -0.00259127 -0.000813984
-0.000295129 -0.00292362 -0.000940856
-0.000249106 -0.00307109 -0.00099499
-0.000196993 -0.00319884 -0.0010291
-0.000144582 -0.00340299 -0.00107059
-9.47581e-05 -0.00354918 -0.00110406
-4.6618e-05 -0.00364028 -0.00113412
2.28533e-07 -0.00366261 -0.001141
4.70076e-05 -0.00366211 -0.00114071
9.50145e-05 -0.00363929 -0.00113355
0.000144607 -0.00354736 -0.00110297
0.000196698 -0.00340056 -0.00106908
0.000248411 -0.00319609 -0.00102728
0.000294005 -0.00306837 -0.000993116
0.000332816 -0.00292111 -0.00093904
0.000356836 -0.00258954 -0.000812495
0.000366374 -0.00223298 -0.000686521
0.000365024 -0.00186664 -0.000564664
0.000355221 -0.00150061 -0.000448944
0.000337051 -0.00114168 -0.00034046
0.000295921 -0.000797276 -0.000240417
0.000233645 -0.000645377 -0.000196613
0.000181881 -0.000526309 -0.000161518
0.000148155 -0.000348206 -0.000107233
0.000122997 -0.000208936 -6.43664e-05
0.000109779 -9.7421e-05 -2.99745e-05
0 0 0
-0.000206664 0 0
-0.000233989 -6.96854e-05 -5.62751e-05
-0.000286941 -0.000154332 -0.000121771
-0.000359614 -0.000271023 -0.00020535
-0.000471822 -0.000438381 -0.000314021
-0.000600733 -0.000564689 -0.000386086
-0.000683787 -0.000725333 -0.000476612
-0.000717263 -0.00108598 -0.000683645
-0.000734539 -0.00144989 -0.000907796
-0.000736187 -0.00181399 -0.00114729
-0.000716522 -0.0021757 -0.00140108
-0.000666914 -0.00252672 -0.00166597
-0.000590297 -0.00285112 -0.00193415
-0.000504822 -0.00299657 -0.00204949
-0.000401375 -0.00312882 -0.00212348
-0.000291002 -0.00334521 -0.00221297
-0.000186091 -0.00349437 -0.00228243
-9.15291e-05 -0.00357925 -0.00234306
4.89658e-07 -0.00360014 -0.00235676
9.23735e-05 -0.00359966 -0.00235614
0.000186668 -0.00357832 -0.00234184
0.000291094 -0.00349265 -0.00228014
0.000400802 -0.00334294 -0.0022098
0.000503451 -0.00312634 -0.00211968
0.0005881 -0.00299416 -0.00204557
0.000663909 -0.00284891 -0.00193035
0.00071287 -0.00252525 -0.00166287
0.000732148 -0.00217533 -0.00139896
0.000730451 -0.00181495 -0.00114626
0.000713524 -0.0014523 -0.000907809
0.00068081 -0.00108971 -0.000684474
0.000599064 -0.000729811 -0.000477898
0.000471125 -0.000568727 -0.000387346
0.000359323 -0.000441873 -0.00031509
0.000286763 -0.000273596 -0.000206012
0.000233851 -0.000156043 -0.000122139
0.000206538 -7.05436e-05 -5.64373e-05
0 0 0
-0.000276591 0 0