<?xml version="1.0"?>
<VTKFile type="RectilinearGrid" version="0.1" byte_order="LittleEndian">
<RectilinearGrid WholeExtent="0 37 0 14 0 34">
<Piece Extent="0 37 0 14 0 34">
<PointData>
<DataArray type="Float32" Name="MVP" NumberOfComponents="3" format="ascii">
0 0 0
0 0 0
0 0 0
0 0 0
0 0 0
0 0 0
0 0 0
0 0 0
0 0 0
0 0 0
0 0 0
0 0 0
0 0 0
0 0 0
0 0 0
0 0 0
0 0 0
0 0 0
0 0 0
0 0 0
0 0 0
0 0 0
0 0 0
0 0 0
0 0 0
0 0 0
0 0 0
0 0 0
0 0 0
0 0 0
0 0 0
0 0 0
0 0 0
0 0 0
0 0 0
0 0 0
0 0 0
0 0 0
0 0 0
0 0 3.20956e-05
0 0 6.79634e-05
0 0 0.000111067
0 0 0.000164142
0 0 0.000198347
0 0 0.000242463
0 0 0.000346983
0 0 0.000460663
0 0 0.000579397
0 0 0.000698223
0 0 0.000811491
0 0 0.000912817
0 0 0.000957618
0 0 0.000999137
0 0 0.00106768
0 0 0.00111548
0 0 0.00114296
0 0 0.00115018
0 0 0.00115146
0 0 0.00114545
0 0 0.00112014
0 0 0.001074
0 0 0.00100646
0 0 0.000965115
0 0 0.000920195
0 0 0.000818066
0 0 0.000703584
0 0 0.000583348
0 0 0.000463195
0 0 0.000348223
0 0 0.000242607
0 0 0.000198122
0 0 0.000163823
0 0 0.000110868
0 0 6.78723e-05
0 0 3.20658e-05
0 0 0
0 0 0
0 0 6.03126e-05
0 0 0.00012834
0 0 0.000211285
0 0 0.000314742
0 0 0.000381541
0 0 0.000466828
0 0 0.000670481
0 0 0.000893069
0 0 0.00112584
0 0 0.00135842
0 0 0.00157891
0 0 0.00177279
0 0 0.00185861
0 0 0.00194197
0 0 0.00208138
0 0 0.00217535
0 0 0.00222472
0 0 0.00223793
0 0 0.00224035
0 0 0.00222944
0 0 0.00218418
0 0 0.00209332
0 0 0.0019557
0 0 0.0018726
0 0 0.00178658
0 0 0.00159123
0 0 0.00136844
0 0 0.00113316
0 0 0.000897676
0 0 0.000672642
0 0 0.000466964
0 0 0.000381017
0 0 0.000314101
0 0 0.000210956
0 0 0.000128229
0 0 6.02932e-05
0 0 0
0 0 0
0 0 8.05698e-05
0 0 0.000173038
0 0 0.000289109
0 0 0.000438261
0 0 0.000535011
0 0 0.000651237
0 0 0.000934907
0 0 0.00124959
0 0 0.00158005
0 0 0.00190962
0 0 0.00221924
0 0 0.00248159
0 0 0.0025974
0 0 0.00272154
0 0 0.00293362
0 0 0.00306774
0 0 0.00312498
0 0 0.00314148
0 0 0.00314461
0 0 0.00313109
0 0 0.00307929
0 0 0.00294916
0 0 0.00273908
0 0 0.00261514
0 0 0.00249913
0 0 0.00223505
0 0 0.00192242
0 0 0.00158925
0 0 0.00125516
0 0 0.000937241
0 0 0.000651028
0 0 0.000534073
0 0 0.000437367
0 0 0.000288839
0 0 0.000173063
0 0 8.06422e-05
0 0 0
0 0 0
0 0 8.84278e-05
0 0 0.000192799
0 0 0.000330937
0 0 0.000521631
0 0 0.000652452
0 0 0.000764877
0 0 0.00106826
0 0 0.00142404
0 0 0.00180347
0 0 0.0021824
0 0 0.00253578
0 0 0.00281385
0 0 0.00293316
0 0 0.00308912
0 0 0.00336116
0 0 0.00351684
0 0 0.00355613
0 0 0.00357252
0 0 0.00357525
0 0 0.0035615
0 0 0.00352726
0 0 0.00337506
0 0 0.00310419
0 0 0.00294809
0 0 0.00282884
0 0 0.00254968
0 0 0.00219356
0 0 0.00181123
0 0 0.00142826
0 0 0.0010693
0 0 0.000763672
0 0 0.000651059
0 0 0.000520845
0 0 0.000331105
0 0 0.000193197
0 0 8.86979e-05
0 0 0
0 0 0
0 0 8.14474e-05
0 0 0.00017958
0 0 0.000316026
0 0 0.000525828
0 0 0.000720865
0 0 0.000752029
0 0 0.000958502
0 0 0.00125585
0 0 0.00158511
0 0 0.00191784
0 0 0.00223665
0 0 0.00252643
0 0 0.00265507
0 0 0.00277148
0 0 0.00296468
0 0 0.00310196
0 0 0.00318385
0 0 0.00320455
0 0 0.00320574
0 0 0.00318619
0 0 0.00310635
0 0 0.00297055
0 0 0.00277808
0 0 0.00266174
0 0 0.00253298
0 0 0.00224245
0 0 0.0019224
0 0 0.00158808
0 0 0.00125697
0 0 0.000957571
0 0 0.000749275
0 0 0.000719016
0 0 0.000525226
0 0 0.000316378
0 0 0.000180084
0 0 8.17633e-05
0 0 0
0 0 0
0 0 6.04723e-05
0 0 0.000134558
0 0 0.000241949
0 0 0.000422572
0 0 0.000627859
0 0 0.000650403
0 0 0.000805358
0 0 0.00104468
0 0 0.00131362
0 0 0.00158649
0 0 0.00184829
0 0 0.00208641
0 0 0.00219218
0 0 0.00228795
0 0 0.00244702
0 0 0.00256
0 0 0.0026272
0 0 0.00264405
0 0 0.00264448
0 0 0.00262804
0 0 0.00256157
0 0 0.00244912
0 0 0.00229034
0 0 0.00219461
0 0 0.00208883
0 0 0.00185051
0 0 0.00158834
0 0 0.00131494
0 0 0.00104532
0 0 0.000805175
0 0 0.000649725
0 0 0.000628054
0 0 0.000422474
0 0 0.000242235
0 0 0.000134924
0 0 6.07021e-05
0 0 0
0 0 0
0 0 1.60225e-08
0 0 3.25858e-08
0 0 5.04142e-08
0 0 7.05802e-08
0 0 8.2575e-08
0 0 7.48077e-08
0 0 6.23708e-08
0 0 4.87183e-08
0 0 3.31729e-08
0 0 1.63958e-08
0 0 -8.69165e-10
0 0 -1.78744e-08
0 0 -2.58825e-08
0 0 -3.34424e-08
0 0 -4.7214e-08
0 0 -5.90548e-08
0 0 -6.86988e-08
0 0 -7.25962e-08
0 0 -7.85474e-08
0 0 -8.06553e-08
0 0 -8.31995e-08
0 0 -8.35343e-08
0 0 -8.19355e-08
0 0 -8.07183e-08
0 0 -7.94605e-08
0 0 -7.64391e-08
0 0 -7.24749e-08
0 0 -6.78321e-08
0 0 -6.28468e-08
0 0 -5.80001e-08
0 0 -5.4178e-08
0 0 -5.33146e-08
0 0 -3.59036e-08
0 0 -2.059e-08
0 0 -1.1701e-08
0 0 -5.38078e-09
0 0 0
0 0 0
0 0 -6.04411e-05
0 0 -0.000134494
0 0 -0.000241851
0 0 -0.000422433
0 0 -0.000627692
0 0 -0.000650249
0 0 -0.000805228
0 0 -0.00104458
0 0 -0.00131355
0 0 -0.00158645
0 0 -0.00184829
0 0 -0.00208644
0 0 -0.00219223
0 0 -0.00228802
0 0 -0.00244711
0 0 -0.00256012
0 0 -0.00262734
0 0 -0.0026442
0 0 -0.00264464
0 0 -0.0026282
0 0 -0.00256174
0 0 -0.00244929
0 0 -0.00229051
0 0 -0.00219478
0 0 -0.00208899
0 0 -0.00185067
0 0 -0.00158848
0 0 -0.00131507
0 0 -0.00104544
0 0 -0.000805291
0 0 -0.00064983
0 0 -0.000628154
0 0 -0.000422544
0 0 -0.000242275
0 0 -0.000134947
0 0 -6.07126e-05
0 0 0
0 0 0
0 0 -8.14177e-05
0 0 -0.00017952
0 0 -0.000315933
0 0 -0.000525695
0 0 -0.000720699
0 0 -0.000751867
0 0 -0.000958364
0 0 -0.00125574
0 0 -0.00158504
0 0 -0.00191781
0 0 -0.00223665
0 0 -0.00252647
0 0 -0.00265512
0 0 -0.00277156
0 0 -0.00296479
0 0 -0.00310209
0 0 -0.00318399
0 0 -0.0032047
0 0 -0.00320591
0 0 -0.00318636
0 0 -0.00310652
0 0 -0.00297072
0 0 -0.00277825
0 0 -0.0026619
0 0 -0.00253315
0 0 -0.00224261
0 0 -0.00192255
0 0 -0.00158822
0 0 -0.0012571
0 0 -0.000957687
0 0 -0.000749376
0 0 -0.000719104
0 0 -0.000525289
0 0 -0.000316416
0 0 -0.000180105
0 0 -8.17733e-05
0 0 0
0 0 0
0 0 -8.84007e-05
0 0 -0.000192744
0 0 -0.000330853
0 0 -0.000521517
0 0 -0.000652323
0 0 -0.000764749
0 0 -0.00106815
0 0 -0.00142395
0 0 -0.00180341
0 0 -0.00218237
0 0 -0.00253578
0 0 -0.00281387
0 0 -0.0029332
0 0 -0.00308918
0 0 -0.00336123
0 0 -0.00351693
0 0 -0.00355624
0 0 -0.00357263
0 0 -0.00357537
0 0 -0.00356162
0 0 -0.00352738
0 0 -0.00337518
0 0 -0.00310431
0 0 -0.00294821
0 0 -0.00282895
0 0 -0.00254979
0 0 -0.00219367
0 0 -0.00181132
0 0 -0.00142835
0 0 -0.00106938
0 0 -0.000763744
0 0 -0.000651122
0 0 -0.000520896
0 0 -0.000331138
0 0 -0.000193216
0 0 -8.87069e-05
0 0 0
0 0 0
0 0 -8.05492e-05
0 0 -0.000172997
0 0 -0.000289048
0 0 -0.000438181
0 0 -0.000534925
0 0 -0.000651151
0 0 -0.000934832
0 0 -0.00124953
0 0 -0.00158001
0 0 -0.0019096
0 0 -0.00221923
0 0 -0.00248161
0 0 -0.00259742
0 0 -0.00272157
0 0 -0.00293367
0 0 -0.0030678
0 0 -0.00312504
0 0 -0.00314155
0 0 -0.00314469
0 0 -0.00313116
0 0 -0.00307936
0 0 -0.00294923
0 0 -0.00273915
0 0 -0.00261521
0 0 -0.0024992
0 0 -0.00223511
0 0 -0.00192248
0 0 -0.00158931
0 0 -0.00125521
0 0 -0.000937289
0 0 -0.00065107
0 0 -0.000534112
0 0 -0.0004374
0 0 -0.000288862
0 0 -0.000173077
0 0 -8.06489e-05
0 0 0
0 0 0
0 0 -6.02989e-05
0 0 -0.000128313
0 0 -0.000211245
0 0 -0.000314692
0 0 -0.000381488
0 0 -0.000466774
0 0 -0.000670433
0 0 -0.00089303
0 0 -0.00112582
0 0 -0.00135841
0 0 -0.0015789
0 0 -0.0017728
0 0 -0.00185862
0 0 -0.00194199
0 0 -0.0020814
0 0 -0.00217539
0 0 -0.00222476
0 0 -0.00223797
0 0 -0.0022404
0 0 -0.00222948
0 0 -0.00218423
0 0 -0.00209337
0 0 -0.00195574
0 0 -0.00187265
0 0 -0.00178662
0 0 -0.00159127
0 0 -0.00136848
0 0 -0.0011332
0 0 -0.000897706
0 0 -0.000672669
0 0 -0.000466988
0 0 -0.00038104
0 0 -0.000314121
0 0 -0.000210971
0 0 -0.000128238
0 0 -6.02976e-05
0 0 0
0 0 0
0 0 -3.20888e-05
0 0 -6.795e-05
0 0 -0.000111048
0 0 -0.000164117
0 0 -0.000198321
0 0 -0.000242437
0 0 -0.00034696
0 0 -0.000460644
0 0 -0.000579383
0 0 -0.000698215
0 0 -0.00081149
0 0 -0.000912822
0 0 -0.000957625
0 0 -0.000999146
0 0 -0.00106769
0 0 -0.00111549
0 0 -0.00114298
0 0 -0.00115019
0 0 -0.00115148
0 0 -0.00114547
0 0 -0.00112016
0 0 -0.00107402
0 0 -0.00100648
0 0 -0.000965135
0 0 -0.000920214
0 0 -0.000818084
0 0 -0.0007036
0 0 -0.000583363
0 0 -0.000463209
0 0 -0.000348235
0 0 -0.000242619
0 0 -0.000198133
0 0 -0.000163832
0 0 -0.000110875
0 0 -6.78767e-05
0 0 -3.2068e-05
0 0 0
0 0 0
0 0 0
0 0 0
0 0 0
0 0 0
0 0 0
0 0 0
0 0 0
0 0 0
0 0 0
0 0 0
0 0 0
0 0 0
0 0 0
0 0 0
0 0 0
0 0 0
0 0 0
0 0 0
0 0 0
0 0 0
0 0 0
0 0 0
0 0 0
0 0 0
0 0 0
0 0 0
0 0 0
0 0 0
0 0 0
0 0 0
0 0 0
0 0 0
0 0 0
0 0 0
0 0 0
0 0 0
0 0 0
0 0 0
0 3.17132e-05 0
0 6.69774e-05 0
0 0.000109062 0
0 0.000160572 0
0 0.000193785 0
0 0.000236783 0
0 0.000338745 0
0 0.000449636 0
0 0.000565517 0
0 0.000681554 0
0 0.0007922 0
0 0.000891167 0
0 0.000934917 0
0 0.000975482 0
0 0.00104242 0
0 0.00108908 0
0 0.0011159 0
0 0.00112296 0
0 0.00112429 0
0 0.00111848 0
0 0.00109388 0
0 0.00104885 0
0 0.000982791 0
0 0.000942285 0
0 0.000898271 0
0 0.000798112 0
0 0.000685724 0
0 0.000567618 0
0 0.00044956 0
0 0.000336601 0
0 0.000232914 0
0 0.000189378 0
0 0.000156024 0
0 0.000104969 0
0 6.39106e-05 0
0 3.00757e-05 0
0 0 0
3.1253e-05 0 0
3.49121e-05 2.79475e-05 3.22298e-05
4.19318e-05 5.96069e-05 6.84054e-05
5.16159e-05 9.84992e-05 0.000112174
6.67366e-05 0.000147316 0.00016644
8.64346e-05 0.00017888 0.000202395
0.000102581 0.000218876 0.000250364
0.000111683 0.000315315 0.000365042
0.000116773 0.000421343 0.000489909
0.000116951 0.000532482 0.000620811
0.000111504 0.000643422 0.000753149
9.96886e-05 0.000747997 0.000882098
8.80678e-05 0.000838187 0.00100273
8.15762e-05 0.000878145 0.00105524
6.71891e-05 0.000919029 0.00109719
4.66048e-05 0.000988292 0.00116185
2.64391e-05 0.00103332 0.00121118
1.35028e-05 0.00105455 0.0012465
4.68967e-07 0.00106039 0.00125559
-1.27026e-05 0.00106158 0.00125723
-2.59068e-05 0.00105686 0.00124968
-4.65859e-05 0.00103765 0.00121707
-6.7852e-05 0.000994055 0.00116987
-8.29399e-05 0.000925456 0.00110658
-9.00351e-05 0.000884567 0.00106486
-0.000102268 0.000844388 0.00101211
-0.000114585 0.000753172 0.000890235
-0.000120344 0.000647003 0.000759646
-0.000120302 0.000534127 0.000625509
-0.000115183 0.000420908 0.000492856
-0.000105881 0.000312853 0.000366431
-8.92463e-05 0.000214676 0.00025044
-6.88696e-05 0.00017414 0.00020202
-5.32021e-05 0.000142448 0.000165973
-4.31941e-05 9.41395e-05 0.000111904
-3.59625e-05 5.63529e-05 6.82833e-05
-3.2199e-05 2.62145e-05 3.21889e-05
0 0 0
5.88203e-05 0 0
6.63161e-05 2.02069e-05 6.06211e-05
8.08024e-05 4.43586e-05 0.000129301
0.000100719 7.67033e-05 0.000213654
0.000130393 0.000120855 0.000319902
0.000167105 0.000149685 0.000391358
0.000199898 0.000179299 0.000487527
0.000218766 0.000256312 0.000721068
0.00022906 0.000345352 0.000975873
0.000229052 0.000440061 0.00124234
0.000217173 0.000534197 0.00151107
0.000190825 0.00062067 0.0017726
0.000168762 0.000686746 0.00201731
0.000163995 0.000715672 0.00212405
0.00013689 0.000755489 0.0022097
9.17485e-05 0.00082655 0.00234214
4.74361e-05 0.000865547 0.00244267
2.47049e-05 0.000872746 0.00251406
9.21576e-07 0.000875893 0.00253236
-2.31115e-05 0.000876659 0.00253567
-4.63272e-05 0.000874249 0.00252049
-9.16654e-05 0.00086844 0.0024546
-0.000138184 0.000830322 0.00235833
-0.000166603 0.000759402 0.00222855
-0.000172366 0.000719437 0.00214331
-0.00019557 0.000690412 0.00203606
-0.000222934 0.000623764 0.00178883
-0.000235444 0.000536135 0.00152395
-0.000235744 0.000440491 0.00125156
-0.00022543 0.000344049 0.000981551
-0.000206207 0.000253166 0.000723642
-0.000172448 0.00017442 0.000487569
-0.000134374 0.000144273 0.000390539
-0.000103627 0.000115356 0.000318973
-8.30988e-05 7.18233e-05 0.00021321
-6.82194e-05 4.07431e-05 0.00012915
-6.05314e-05 1.82905e-05 6.05906e-05
0 0 0
7.87907e-05 0 0
9.03911e-05 8.10579e-06 8.12009e-05
0.000113379 2.00357e-05 0.00017472
0.000145531 4.16361e-05 0.000292784
0.000189063 8.17972e-05 0.000446177
0.000227551 0.000114578 0.000552519
0.000278367 0.000109069 0.000696236
0.000309425 0.00012519 0.00106103
0.000325457 0.000163026 0.00145919
0.000324864 0.000208961 0.00187208
0.000305231 0.000255455 0.0022857
0.00025831 0.000296541 0.00268692
0.000227831 0.000309837 0.00306278
0.000244699 0.000312275 0.00322751
0.000208778 0.000343117 0.0033603
0.000131209 0.000401444 0.0035672
5.47183e-05 0.000421857 0.00372339
3.08005e-05 0.000403255 0.00383319
1.20897e-06 0.000402984 0.00386101
-2.86745e-05 0.000402649 0.00386607
-5.31399e-05 0.000402626 0.00384301
-0.000131109 0.000420933 0.00374161
-0.000210718 0.000400055 0.00359181
-0.000248327 0.000340848 0.0033887
-0.000232317 0.000309616 0.00325641
-0.000264254 0.000307366 0.00309087
-0.00031271 0.000294483 0.00271116
-0.000333277 0.000253333 0.00230479
-0.000334355 0.000206522 0.00188551
-0.000318417 0.000159914 0.00146716
-0.00028697 0.000120883 0.00106434
-0.000234732 0.000103089 0.00069603
-0.000194204 0.000108138 0.000551172
-0.000149193 7.54021e-05 0.000444927
-0.000116255 3.60199e-05 0.000292452
-9.27706e-05 1.59132e-05 0.000174759
-8.09287e-05 5.93424e-06 8.12905e-05
0 0 0
8.68353e-05 0 0
0.000102472 -1.34832e-05 8.99201e-05
0.000135567 -2.56584e-05 0.00019596
0.000186955 -2.91368e-05 0.000335644
0.000256536 8.18806e-06 0.000527478
0.000218815 0.000135358 0.000670161
0.00029702 -2.99433e-05 0.000853134
0.000349863 -0.000228001 0.00138727
0.000373991 -0.000348159 0.00196173
0.000373896 -0.000451479 0.00254355
0.000348719 -0.000546714 0.00311767
0.000273783 -0.000618537 0.00366976
0.000234646 -0.00059754 0.00418761
0.000308144 -0.000579985 0.00441686
0.000268576 -0.000660061 0.00460255
0.000152663 -0.000819371 0.00489716
3.6716e-05 -0.00085734 0.0051183
3.05316e-05 -0.000772809 0.00527204
8.23738e-07 -0.000764333 0.00530987
-2.90819e-05 -0.000767335 0.00531676
-3.55032e-05 -0.000778743 0.00528545
-0.000153047 -0.000869164 0.00514325
-0.000271345 -0.000835148 0.00493064
-0.000312443 -0.000676704 0.0046407
-0.000238606 -0.000596235 0.00445551
-0.000279099 -0.000614203 0.00422516
-0.000355955 -0.000634665 0.00370221
-0.00038222 -0.000560102 0.00314303
-0.000383031 -0.000461592 0.00256094
-0.000359357 -0.00035552 0.00197138
-0.000306439 -0.00023433 0.00139047
-0.000226217 -3.81696e-05 0.000852258
-0.000261337 0.000126948 0.000668506
-0.000190423 4.56994e-07 0.000526696
-0.000138363 -3.58718e-05 0.000336091
-0.000104818 -3.05485e-05 0.000196564
-8.89544e-05 -1.60374e-05 9.02906e-05
0 0 0
8.01234e-05 0 0
9.65433e-05 -4.13401e-05 8.31962e-05
0.000134267 -8.89704e-05 0.000182904
0.000206561 -0.000146938 0.000318839
0.000385313 -0.000205705 0.000517661
5.56299e-05 -0.000185544 0.000692933
0.000200021 -0.000207663 0.000850835
0.000291717 -0.000315193 0.00155878
0.000324207 -0.000434392 0.00227344
0.000328089 -0.000557955 0.00297057
0.000314519 -0.000680494 0.00364738
0.000285848 -0.000797183 0.0042899
0.000253621 -0.000902959 0.0048731
0.00022938 -0.000949778 0.00513017
0.000190054 -0.00099205 0.00536086
0.000134555 -0.00106197 0.00573786
7.95975e-05 -0.00111171 0.0060024
3.94311e-05 -0.00114174 0.00616068
-4.44687e-07 -0.00114959 0.00620203
-4.0444e-05 -0.00115106 0.0062101
-8.0852e-05 -0.00114461 0.00617642
-0.000136416 -0.0011171 0.00603196
-0.000192726 -0.00106918 0.00577735
-0.000232723 -0.00100013 0.00540511
-0.00025741 -0.000957914 0.00517473
-0.000290274 -0.000910916 0.00491665
-0.000319699 -0.000804145 0.00432802
-0.000334003 -0.000685896 0.00367715
-0.000330969 -0.000561516 0.00299066
-0.000299574 -0.000436107 0.00228401
-0.000208873 -0.000315458 0.00156149
-6.13638e-05 -0.000208295 0.000848623
-0.000388314 -0.000191003 0.00069124
-0.00020939 -0.000213937 0.00051748
-0.000136665 -0.000154789 0.000319623
-9.85834e-05 -9.4694e-05 0.000183675
-8.19756e-05 -4.43157e-05 8.36356e-05
0 0 0
5.95168e-05 0 0
7.29336e-05 -5.96987e-05 6.15679e-05
0.000105807 -0.000133126 0.000136317
0.000178311 -0.000240138 0.000241136
0.000407597 -0.000421028 0.000402307
4.1998e-05 -0.000627139 0.000561076
0.000152514 -0.000655389 0.000599498
0.000237646 -0.00081477 0.000774623
0.000267688 -0.00105702 0.00106685
0.000271862 -0.00132873 0.00136471
0.000260933 -0.00160435 0.001657
0.000237324 -0.00186881 0.00193657
0.000210776 -0.00210935 0.0021919
0.000190794 -0.00221621 0.00230474
0.000158315 -0.00231298 0.00240606
0.000112238 -0.0024737 0.00257116
6.64507e-05 -0.00258785 0.0026853
3.29446e-05 -0.00265573 0.0027511
-3.1679e-07 -0.00267272 0.00276692
-3.36205e-05 -0.00267309 0.00276502
-6.72089e-05 -0.00265644 0.0027474
-0.000113197 -0.00258919 0.00267836
-0.000159537 -0.0024755 0.00256191
-0.000192229 -0.00231505 0.00239576
-0.000212356 -0.00221834 0.00229443
-0.000239117 -0.00211149 0.00218192
-0.00026301 -0.00187084 0.00192818
-0.000274264 -0.00160615 0.00165103
-0.00027051 -0.00133021 0.00136157
-0.000240984 -0.0010582 0.00106658
-0.000156036 -0.000816091 0.000776742
-4.34877e-05 -0.000659416 0.00060192
-0.000411401 -0.000637039 0.000560984
-0.000180551 -0.000430873 0.000402281
-0.000107563 -0.000248804 0.000241631
-7.44091e-05 -0.00013936 0.000136849
-6.08545e-05 -6.29269e-05 6.18804e-05
0 0 0
1.82832e-08 0 0
1.88114e-08 -5.96996e-05 1.64521e-08
2.00212e-08 -0.000133128 3.32463e-08
2.21737e-08 -0.000240141 5.0653e-08
2.56719e-08 -0.00042103 6.87487e-08
-1.4153e-08 -0.000627136 7.84356e-08
-1.11775e-08 -0.000655384 -1.04415e-08
-1.2314e-08 -0.000814765 -4.23185e-09
-1.41055e-08 -0.00105702 -2.02315e-09
-1.52759e-08 -0.00132872 -1.23464e-09
-1.57618e-08 -0.00160435 -5.68021e-10
-1.55615e-08 -0.00186881 3.74742e-11
-1.46607e-08 -0.00210936 5.39549e-10
-1.38371e-08 -0.00221622 7.33562e-10
-1.26053e-08 -0.00231298 8.92365e-10
-1.08482e-08 -0.0024737 1.10535e-09
-8.83341e-09 -0.00258786 1.19569e-09
-7.11813e-09 -0.00265573 1.18785e-09
-5.40413e-09 -0.00267273 1.154e-09
-3.78599e-09 -0.00267309 1.03921e-09
-2.2246e-09 -0.00265644 9.69279e-10
-1.44741e-10 -0.00258919 8.15106e-10
1.68223e-09 -0.0024755 6.36866e-10
2.46251e-09 -0.00231505 4.36939e-10
2.52107e-09 -0.00221834 3.31438e-10
2.98883e-09 -0.00211149 2.5807e-10
3.88947e-09 -0.00187084 1.15701e-10
4.54294e-09 -0.00160615 -2.25572e-11
4.87615e-09 -0.00133021 -1.42652e-10
4.74352e-09 -0.0010582 -2.47036e-10
3.74391e-09 -0.000816091 -4.59204e-10
1.69629e-09 -0.000659413 -3.43155e-09
3.48381e-08 -0.000637032 -1.69477e-08
1.5353e-08 -0.000430871 -1.77703e-08
8.9341e-09 -0.000248803 -1.38893e-08
6.36423e-09 -0.00013936 -9.13624e-09
5.42432e-09 -6.29266e-05 -4.48334e-09
0 0 0
-5.94813e-05 0 0
-7.28969e-05 -4.1343e-05 -6.15359e-05
-0.000105768 -8.89766e-05 -0.000136252
-0.000178266 -0.000146948 -0.000241038
-0.000407537 -0.000205716 -0.000402175
-4.20208e-05 -0.000185545 -0.000560926
-0.000152536 -0.000207648 -0.000599516
-0.000237671 -0.000315177 -0.000774636
-0.000267716 -0.000434379 -0.00106686
-0.000271893 -0.000557947 -0.00136471
-0.000260965 -0.000680489 -0.001657
-0.000237356 -0.000797183 -0.00193657
-0.000210806 -0.000902963 -0.00219189
-0.000190821 -0.000949784 -0.00230474
-0.00015834 -0.000992057 -0.00240606
-0.00011226 -0.00106198 -0.00257116
-6.64682e-05 -0.00111172 -0.00268529
-3.29585e-05 -0.00114175 -0.0027511
3.06338e-07 -0.0011496 -0.00276692
3.36134e-05 -0.00115107 -0.00276502
6.72049e-05 -0.00114462 -0.0027474
0.000113198 -0.00111711 -0.00267836
0.000159541 -0.00106918 -0.00256191
0.000192235 -0.00100013 -0.00239576
0.000212361 -0.000957918 -0.00229443
0.000239123 -0.00091092 -0.00218193
0.000263018 -0.000804149 -0.00192819
0.000274274 -0.000685899 -0.00165103
0.00027052 -0.000561518 -0.00136158
0.000240995 -0.000436108 -0.00106659
0.000156046 -0.000315458 -0.000776748
4.3497e-05 -0.000208288 -0.000601932
0.000411464 -0.000190978 -0.00056102
0.000180581 -0.000213924 -0.000402317
0.00010758 -0.000154784 -0.000241659
7.44216e-05 -9.46915e-05 -0.000136867
6.08651e-05 -4.43147e-05 -6.18892e-05
0 0 0
-8.00895e-05 0 0
-9.65083e-05 -1.34885e-05 -8.31658e-05
-0.00013423 -2.56697e-05 -0.000182843
-0.000206516 -2.91566e-05 -0.000318747
-0.000385241 8.15e-06 -0.000517537
-5.56334e-05 0.000135283 -0.000692792
-0.000200039 -3.00109e-05 -0.000850706
-0.000291741 -0.000228055 -0.00155867
-0.000324236 -0.0003482 -0.00227335
-0.00032812 -0.000451505 -0.00297051
-0.000314551 -0.000546723 -0.00364734
-0.000285881 -0.000618529 -0.00428989
-0.000253651 -0.000597515 -0.00487311
-0.000229406 -0.000579953 -0.00513019
-0.000190078 -0.000660019 -0.00536088
-0.000134575 -0.000819311 -0.0057379
-7.96142e-05 -0.000857267 -0.00600245
-3.94441e-05 -0.000772728 -0.00616073
4.35229e-07 -0.000764248 -0.00620209
4.04378e-05 -0.000767242 -0.00621016
8.0849e-05 -0.000778647 -0.00617648
0.000136417 -0.00086906 -0.00603201
0.000192732 -0.000835043 -0.00577741
0.000232731 -0.000676609 -0.00540516
0.000257415 -0.000596144 -0.00517478
0.000290281 -0.000614111 -0.0049167
0.000319708 -0.000634569 -0.00432806
0.000334013 -0.00056001 -0.00367719
0.00033098 -0.000461506 -0.00299071
0.000299586 -0.000355441 -0.00228405
0.000208887 -0.000234259 -0.00156153
6.13915e-05 -3.81096e-05 -0.000848661
0.000388363 0.000126996 -0.000691281
0.000209415 4.80876e-07 -0.000517516
0.000136681 -3.58617e-05 -0.00031965
9.85951e-05 -3.05438e-05 -0.000183692
8.19857e-05 -1.60354e-05 -8.36441e-05
0 0 0
-8.68041e-05 0 0
-0.000102441 8.09917e-06 -8.98923e-05
-0.000135534 2.0022e-05 -0.000195904
-0.00018692 4.16137e-05 -0.000335561
-0.000256501 8.17629e-05 -0.00052737
-0.000218811 0.000114536 -0.000670044
-0.000297031 0.000109026 -0.00085302
-0.00034988 0.000125154 -0.00138717
-0.000374012 0.000162999 -0.00196166
-0.000373918 0.000208943 -0.00254349
-0.000348742 0.000255447 -0.00311764
-0.000273807 0.000296543 -0.00366976
-0.000234668 0.00030985 -0.00418762
-0.000308162 0.000312292 -0.00441688
-0.000268591 0.000343138 -0.00460258
-0.000152676 0.000401473 -0.0048972
-3.67285e-05 0.000421893 -0.00511835
-3.05402e-05 0.000403297 -0.00527209
-8.29285e-07 0.000403029 -0.00530993
2.90794e-05 0.000402697 -0.00531682
3.55048e-05 0.000402676 -0.00528551
0.000153048 0.000420983 -0.00514331
0.000271347 0.000400105 -0.0049307
0.000312446 0.000340898 -0.00464076
0.000238613 0.000309666 -0.00445557
0.000279107 0.000307414 -0.00422521
0.000355962 0.000294528 -0.00370226
0.000382227 0.000253376 -0.00314308
0.000383039 0.000206561 -0.00256098
0.000359365 0.000159951 -0.00197142
0.000306448 0.000120916 -0.00139051
0.000226233 0.000103118 -0.000852296
0.000261363 0.000108164 -0.000668543
0.000190441 7.54203e-05 -0.000526729
0.000138376 3.60298e-05 -0.000336115
0.000104828 1.59186e-05 -0.00019658
8.89635e-05 5.93662e-06 -9.02983e-05
0 0 0
-7.87667e-05 0 0
-9.03671e-05 2.01998e-05 -8.11798e-05
-0.000113356 4.43442e-05 -0.000174678
-0.000145508 7.66814e-05 -0.000292722
-0.000189045 0.000120825 -0.000446099
-0.000227546 0.000149652 -0.000552435
-0.000278372 0.000179266 -0.000696153
-0.000309434 0.000256283 -0.00106096
-0.000325469 0.000345329 -0.00145913
-0.000324878 0.000440046 -0.00187204
-0.000305245 0.000534189 -0.00228568
-0.000258323 0.00062067 -0.00268691
-0.000227844 0.000686754 -0.00306279
-0.000244708 0.000715684 -0.00322752
-0.000208785 0.000755504 -0.00336032
-0.000131216 0.000826569 -0.00356724
-5.47243e-05 0.000865572 -0.00372343
-3.08044e-05 0.000872774 -0.00383323
-1.21102e-06 0.000875923 -0.00386106
2.86742e-05 0.00087669 -0.00386612
5.31417e-05 0.000874281 -0.00384306
0.00013111 0.000868471 -0.00374166
0.000210719 0.000830353 -0.00359186
0.000248329 0.000759433 -0.00338875
0.000232322 0.000719468 -0.00325646
0.00026426 0.000690442 -0.00309091
0.000312715 0.000623792 -0.0027112
0.000333282 0.000536161 -0.00230483
0.000334359 0.000440515 -0.00188555
0.000318422 0.000344071 -0.00146719
0.000286976 0.000253186 -0.00106437
0.00023474 0.000174438 -0.000696059
0.000194215 0.000144289 -0.0005512
0.000149203 0.00011537 -0.000444951
0.000116264 7.18318e-05 -0.00029247
9.2778e-05 4.07481e-05 -0.000174771
8.09355e-05 1.82928e-05 -8.12964e-05
0 0 0
-5.88041e-05 0 0
-6.63001e-05 2.79404e-05 -6.0607e-05
-8.0787e-05 5.95927e-05 -0.000129273
-0.000100705 9.84782e-05 -0.000213613
-0.000130383 0.000147289 -0.000319851
-0.000167101 0.000178851 -0.000391304
-0.0001999 0.000218847 -0.000487474
-0.000218771 0.000315289 -0.000721021
-0.000229067 0.000421322 -0.000975835
-0.00022906 0.000532467 -0.00124231
-0.000217181 0.000643415 -0.00151105
-0.000190832 0.000747997 -0.0017726
-0.000168769 0.000838193 -0.00201732
-0.000164 0.000878154 -0.00212406
-0.000136894 0.000919041 -0.00220971
-9.17519e-05 0.000988309 -0.00234216
-4.74389e-05 0.00103334 -0.0024427
-2.47066e-05 0.00105457 -0.00251409
-9.2218e-07 0.00106041 -0.00253239
2.31118e-05 0.0010616 -0.00253571
4.63286e-05 0.00105689 -0.00252053
9.16668e-05 0.00103767 -0.00245464
0.000138185 0.000994079 -0.00235836
0.000166604 0.00092548 -0.00222858
0.000172369 0.00088459 -0.00214334
0.000195573 0.00084441 -0.00203609
0.000222937 0.000753192 -0.00178885
0.000235447 0.000647023 -0.00152398
0.000235746 0.000534145 -0.00125159
0.000225433 0.000420924 -0.000981574
0.000206209 0.000312868 -0.000723664
0.000172452 0.00021469 -0.000487588
0.00013438 0.000174152 -0.000390557
0.000103633 0.000142458 -0.000318989
8.3104e-05 9.4147e-05 -0.000213222
6.82241e-05 5.63576e-05 -0.000129158
6.05358e-05 2.62167e-05 -6.05945e-05
0 0 0
-3.12448e-05 0 0
-3.49041e-05 3.1706e-05 -3.22229e-05
-4.19242e-05 6.69632e-05 -6.83917e-05
-5.16091e-05 0.000109041 -0.000112155
-6.67318e-05 0.000160546 -0.000166415
-8.64328e-05 0.000193758 -0.000202369
-0.000102581 0.000236756 -0.000250338
-0.000111685 0.000338721 -0.000365018
-0.000116776 0.000449616 -0.00048989
-0.000116954 0.000565504 -0.000620798
-0.000111508 0.000681547 -0.000753142
-9.9692e-05 0.0007922 -0.000882097
-8.80708e-05 0.000891173 -0.00100274
-8.15785e-05 0.000934926 -0.00105524
-6.71909e-05 0.000975493 -0.0010972
-4.66062e-05 0.00104244 -0.00116186
-2.64402e-05 0.0010891 -0.00121119
-1.35034e-05 0.00111592 -0.00124652
-4.69073e-07 0.00112298 -0.00125561
1.2703e-05 0.00112431 -0.00125725
2.59075e-05 0.0011185 -0.0012497
4.65866e-05 0.0010939 -0.00121709
6.78526e-05 0.00104888 -0.00116989
8.29407e-05 0.000982812 -0.0011066
9.00365e-05 0.000942305 -0.00106487
0.00010227 0.000898291 -0.00101212
0.000114587 0.000798131 -0.000890249
0.000120345 0.000685741 -0.000759659
0.000120304 0.000567634 -0.000625521
0.000115184 0.000449574 -0.000492868
0.000105882 0.000336614 -0.000366442
8.92481e-05 0.000232926 -0.00025045
6.88721e-05 0.000189388 -0.000202029
5.32047e-05 0.000156033 -0.000165981
4.31966e-05 0.000104976 -0.00011191
3.59648e-05 6.39151e-05 -6.82873e-05
3.22012e-05 3.00779e-05 -3.21909e-05
0 0 0
0 0 0
0 0 0
0 0 0
0 0 0
0 0 0
0 0 0
0 0 0
0 0 0
0 0 0
0 0 0
0 0 0
0 0 0
0 0 0
0 0 0
0 0 0
0 0 0
0 0 0
0 0 0
0 0 0
0 0 0
0 0 0
0 0 0
0 0 0
0 0 0
0 0 0
0 0 0
0 0 0
0 0 0
0 0 0
0 0 0
0 0 0
0 0 0
0 0 0
0 0 0
0 0 0
0 0 0
0 0 0
0 0 0
0 0 0
0 0.000117168 0
0 0.000247738 0
0 0.00040411 0
0 0.00059622 0
0 0.000722613 0
0 0.000890439 0
0 0.00129107 0
0 0.00172714 0
0 0.00218411 0
0 0.00264522 0
0 0.00309236 0
0 0.00350637 0
0 0.00368718 0
0 0.00383695 0
0 0.00407185 0
0 0.00424692 0
0 0.00436616 0
0 0.00439708 0
0 0.00440299 0
0 0.00437762 0
0 0.0042681 0
0 0.00410035 0
0 0.00386965 0
0 0.00372024 0
0 0.00353809 0
0 0.00311844 0
0 0.00266361 0
0 0.00219367 0
0 0.00172758 0
0 0.00128291 0
0 0.00087504 0
0 0.000704891 0
0 0.000577913 0
0 0.000387709 0
0 0.000235474 0
0 0.000110626 0
0 0 0
0.000114561 0 0
0.000128358 0.00010355 3.19575e-05
0.000154884 0.000221084 6.8601e-05
0.000191553 0.000366032 0.000114315
0.000252964 0.000549367 0.000172573
0.000336304 0.000672752 0.000211107
0.000401943 0.000837971 0.000261464
0.000438053 0.00124376 0.00038207
0.000459365 0.0016882 0.000516715
0.000463642 0.00215272 0.000662049
0.000449503 0.00261946 0.00081383
0.000415915 0.00307016 0.000966934
0.000362971 0.00348453 0.00111585
0.000300443 0.00366613 0.00117779
0.000235083 0.00382084 0.00121619
0.00017413 0.00406639 0.00126285
0.00011712 0.00424484 0.00130105
5.8859e-05 0.00436046 0.0013361
2.06879e-06 0.00439048 0.00134493
-5.53719e-05 0.00439636 0.00134751
-0.000114903 0.00437187 0.0013411
-0.000174022 0.00426596 0.00131023
-0.000237744 0.00409468 0.0012754
-0.000306327 0.00385296 0.00123105
-0.00037207 0.00369845 0.00119297
-0.000427747 0.00351552 0.00113032
-0.000463178 0.00309564 0.000978783
-0.000478406 0.00263733 0.000822782
-0.000474546 0.00216177 0.000668157
-0.00045304 0.00168805 0.000520266
-0.000416117 0.00123478 0.000383477
-0.000348446 0.000821344 0.00026113
-0.000262042 0.000653586 0.000210194
-0.000198198 0.000529593 0.000171608
-0.00016013 0.000348419 0.000113763
-0.000132675 0.000207985 6.83353e-05
-0.000118418 9.65872e-05 3.18577e-05
0 0 0
0.000215794 0 0
0.000244025 7.57337e-05 5.99907e-05
0.00029879 0.000166083 0.000129659
0.000374911 0.000286822 0.000218353
0.000500592 0.000452767 0.000333807
0.000668126 0.000571373 0.000411403
0.000809842 0.000723782 0.000513225
0.000885297 0.00114204 0.000761017
0.000927099 0.00160475 0.00103922
0.000933728 0.00208159 0.00134044
0.000903369 0.0025541 0.00165665
0.000832953 0.00300556 0.00197795
0.000728238 0.00341459 0.00229195
0.000611461 0.00359515 0.00242289
0.000481445 0.00375796 0.0025051
0.000352191 0.00402308 0.00260458
0.000231111 0.00420736 0.00268382
0.000116345 0.00431523 0.00275527
4.50159e-06 0.0043434 0.00277313
-0.000108616 0.00434903 0.00277864
-0.000225884 0.00432619 0.00276594
-0.000351331 0.00422777 0.00270346
-0.000486336 0.00405017 0.00263135
-0.000622739 0.00378801 0.00253654
-0.000745604 0.00362508 0.00245481
-0.000855669 0.00344332 0.00232224
-0.000929832 0.00302929 0.00200253
-0.000962423 0.0025706 0.001675
-0.000956713 0.00208951 0.00135277
-0.000914672 0.0016035 0.0010462
-0.000837787 0.00113161 0.000763612
-0.0006921 0.000704779 0.00051242
-0.000518102 0.000549139 0.000409494
-0.000387358 0.000429911 0.000331899
-0.000308455 0.000266762 0.000217398
-0.000251897 0.000151348 0.000129269
-0.000222795 6.7961e-05 5.9868e-05
0 0 0
0.000289725 0 0
0.000333122 3.30563e-05 8.01067e-05
0.000419305 7.95396e-05 0.000175268
0.000541978 0.000158725 0.000301032
0.000739976 0.000298627 0.000471809
0.000975761 0.000424301 0.000590431
0.00123175 0.000516888 0.000743856
0.00135236 0.000973738 0.00113355
0.00140869 0.00147268 0.00157438
0.00141109 0.00196068 0.00205232
0.00135947 0.00242718 0.00255723
0.00124608 0.00286304 0.0030761
0.00109275 0.00324805 0.00358694