<?xml version="1.0"?>
<VTKFile type="RectilinearGrid" version="0.1" byte_order="LittleEndian">
<RectilinearGrid WholeExtent="0 37 0 14 0 34">
<Piece Extent="0 37 0 14 0 34">
<PointData>
<DataArray type="Float32" Name="MVP" NumberOfComponents="3" format="ascii">
0 0 0
0 0 0
0 0 0
0 0 0
0 0 0
0 0 0
0 0 0
0 0 0
0 0 0
0 0 0
0 0 0
0 0 0
0 0 0
0 0 0
0 0 0
0 0 0
0 0 0
0 0 0
0 0 0
0 0 0
0 0 0
0 0 0
0 0 0
0 0 0
0 0 0
0 0 0
0 0 0
0 0 0
0 0 0
0 0 0
0 0 0
0 0 0
0 0 0
0 0 0
0 0 0
0 0 0
0 0 0
0 0 0
0 0 0
0 0 5.97138e-05
0 0 0.000126038
0 0 0.000204821
0 0 0.000300206
0 0 0.00036096
0 0 0.00043902
0 0 0.000620787
0 0 0.000814423
0 0 0.00101411
0 0 0.00121259
0 0 0.00140055
0 0 0.00156607
0 0 0.00163943
0 0 0.00171048
0 0 0.00182856
0 0 0.00190692
0 0 0.00194636
0 0 0.00195576
0 0 0.00195365
0 0 0.00194225
0 0 0.00189928
0 0 0.00181819
0 0 0.00169846
0 0 0.00162717
0 0 0.0015541
0 0 0.00139019
0 0 0.00120456
0 0 0.00100874
0 0 0.000811674
0 0 0.000620311
0 0 0.000440292
0 0 0.000362718
0 0 0.000301949
0 0 0.000206015
0 0 0.000126733
0 0 6.00234e-05
0 0 0
0 0 0
0 0 0.000111911
0 0 0.000237091
0 0 0.00038732
0 0 0.000570513
0 0 0.000687412
0 0 0.000837731
0 0 0.00118975
0 0 0.00156472
0 0 0.00195131
0 0 0.00233483
0 0 0.00269545
0 0 0.00300507
0 0 0.00314247
0 0 0.00328491
0 0 0.0035257
0 0 0.00367821
0 0 0.00374413
0 0 0.00376029
0 0 0.00375624
0 0 0.00373624
0 0 0.00366348
0 0 0.00350578
0 0 0.00326201
0 0 0.00311917
0 0 0.00298233
0 0 0.00267577
0 0 0.00231968
0 0 0.00194138
0 0 0.00155993
0 0 0.00118934
0 0 0.000840548
0 0 0.000691034
0 0 0.000573955
0 0 0.000389525
0 0 0.000238306
0 0 0.000112432
0 0 0
0 0 0
0 0 0.000148614
0 0 0.000316817
0 0 0.000522202
0 0 0.000775392
0 0 0.000936062
0 0 0.00113812
0 0 0.00161978
0 0 0.00213497
0 0 0.00266722
0 0 0.00319426
0 0 0.00368384
0 0 0.00407994
0 0 0.00425482
0 0 0.00446556
0 0 0.00483184
0 0 0.00504386
0 0 0.00510401
0 0 0.00512129
0 0 0.00511579
0 0 0.00509328
0 0 0.00502373
0 0 0.00480478
0 0 0.00443488
0 0 0.00422383
0 0 0.00404967
0 0 0.00365759
0 0 0.00317432
0 0 0.00265466
0 0 0.00212971
0 0 0.00162062
0 0 0.00114302
0 0 0.000941648
0 0 0.000780265
0 0 0.000524937
0 0 0.000318163
0 0 0.000149146
0 0 0
0 0 0
0 0 0.000161304
0 0 0.000346731
0 0 0.000578635
0 0 0.000868124
0 0 0.00104666
0 0 0.00123127
0 0 0.00171483
0 0 0.00225018
0 0 0.00281186
0 0 0.00336997
0 0 0.00388252
0 0 0.00424183
0 0 0.00439165
0 0 0.0046488
0 0 0.00510815
0 0 0.005336
0 0 0.00533254
0 0 0.00534488
0 0 0.0053392
0 0 0.00532142
0 0 0.00531487
0 0 0.00507995
0 0 0.00461772
0 0 0.00436068
0 0 0.00421141
0 0 0.00385594
0 0 0.00335027
0 0 0.00280047
0 0 0.00224715
0 0 0.00171877
0 0 0.00123902
0 0 0.00105398
0 0 0.000873448
0 0 0.000580936
0 0 0.000347594
0 0 0.000161562
0 0 0
0 0 0
0 0 0.000147352
0 0 0.000318429
0 0 0.000536867
0 0 0.000819167
0 0 0.00100881
0 0 0.00103819
0 0 0.00128486
0 0 0.00164528
0 0 0.00204666
0 0 0.00245468
0 0 0.00284782
0 0 0.00320678
0 0 0.00336634
0 0 0.00351072
0 0 0.00374973
0 0 0.00391778
0 0 0.0040154
0 0 0.00403858
0 0 0.00403428
0 0 0.00400701
0 0 0.00390207
0 0 0.00372882
0 0 0.00348743
0 0 0.00334302
0 0 0.00318417
0 0 0.00282869
0 0 0.00244107
0 0 0.00203976
0 0 0.00164543
0 0 0.0012914
0 0 0.00104849
0 0 0.0010172
0 0 0.000824048
0 0 0.000538657
0 0 0.000318976
0 0 0.000147468
0 0 0
0 0 0
0 0 0.000108739
0 0 0.000236122
0 0 0.000402778
0 0 0.000634454
0 0 0.00083808
0 0 0.000821879
0 0 0.000966857
0 0 0.00121984
0 0 0.0015105
0 0 0.00180833
0 0 0.00209576
0 0 0.00235819
0 0 0.00247494
0 0 0.00258071
0 0 0.00275624
0 0 0.00288002
0 0 0.00295206
0 0 0.00296917
0 0 0.00296593
0 0 0.00294575
0 0 0.0028682
0 0 0.00274051
0 0 0.0025632
0 0 0.0024574
0 0 0.00234117
0 0 0.00208134
0 0 0.00179804
0 0 0.00150521
0 0 0.00121971
0 0 0.00097109
0 0 0.000827756
0 0 0.000842124
0 0 0.000637485
0 0 0.000404017
0 0 0.000236518
0 0 0.000108824
0 0 0
0 0 0
0 0 -3.49548e-08
0 0 -7.72525e-08
0 0 -1.4031e-07
0 0 -2.55358e-07
0 0 -3.84777e-07
0 0 -3.76223e-07
0 0 -3.41696e-07
0 0 -2.96224e-07
0 0 -2.42176e-07
0 0 -1.82023e-07
0 0 -1.18454e-07
0 0 -5.39965e-08
0 0 -2.21357e-08
0 0 9.262e-09
0 0 7.00412e-08
0 0 1.2685e-07
0 0 1.7902e-07
0 0 2.03268e-07
0 0 2.48032e-07
0 0 2.68547e-07
0 0 3.05905e-07
0 0 3.38949e-07
0 0 3.68016e-07
0 0 3.80961e-07
0 0 3.92657e-07
0 0 4.13081e-07
0 0 4.30655e-07
0 0 4.45762e-07
0 0 4.58602e-07
0 0 4.69113e-07
0 0 4.76602e-07
0 0 4.77948e-07
0 0 2.9018e-07
0 0 1.38191e-07
0 0 6.67712e-08
0 0 2.7644e-08
0 0 0
0 0 0
0 0 -0.000108807
0 0 -0.000236275
0 0 -0.000403056
0 0 -0.000634969
0 0 -0.000838856
0 0 -0.000822639
0 0 -0.000967549
0 0 -0.00122044
0 0 -0.00151099
0 0 -0.0018087
0 0 -0.00209599
0 0 -0.00235829
0 0 -0.00247498
0 0 -0.00258069
0 0 -0.00275609
0 0 -0.00287976
0 0 -0.0029517
0 0 -0.00296876
0 0 -0.00296543
0 0 -0.00294521
0 0 -0.00286759
0 0 -0.00273983
0 0 -0.00256246
0 0 -0.00245664
0 0 -0.00234038
0 0 -0.00208051
0 0 -0.00179717
0 0 -0.00150431
0 0 -0.00121879
0 0 -0.000970151
0 0 -0.000826799
0 0 -0.00084116
0 0 -0.000636895
0 0 -0.000403739
0 0 -0.000236385
0 0 -0.000108769
0 0 0
0 0 0
0 0 -0.000147418
0 0 -0.000318573
0 0 -0.000537131
0 0 -0.00081966
0 0 -0.00100959
0 0 -0.00103895
0 0 -0.00128556
0 0 -0.00164588
0 0 -0.00204715
0 0 -0.00245504
0 0 -0.00284806
0 0 -0.00320689
0 0 -0.00336639
0 0 -0.00351069
0 0 -0.00374958
0 0 -0.00391752
0 0 -0.00401503
0 0 -0.00403817
0 0 -0.00403378
0 0 -0.00400647
0 0 -0.00390145
0 0 -0.00372813
0 0 -0.00348669
0 0 -0.00334226
0 0 -0.00318338
0 0 -0.00282787
0 0 -0.0024402
0 0 -0.00203887
0 0 -0.00164451
0 0 -0.00129046
0 0 -0.00104752
0 0 -0.00101623
0 0 -0.00082348
0 0 -0.000538394
0 0 -0.000318849
0 0 -0.000147415
0 0 0
0 0 0
0 0 -0.000161362
0 0 -0.000346858
0 0 -0.000578857
0 0 -0.000868499
0 0 -0.00104714
0 0 -0.00123177
0 0 -0.00171528
0 0 -0.00225057
0 0 -0.00281217
0 0 -0.00337019
0 0 -0.00388266
0 0 -0.00424189
0 0 -0.00439167
0 0 -0.00464878
0 0 -0.00510805
0 0 -0.00533583
0 0 -0.00533229
0 0 -0.00534461
0 0 -0.00533887
0 0 -0.00532107
0 0 -0.00531448
0 0 -0.00507952
0 0 -0.00461724
0 0 -0.00436018
0 0 -0.0042109
0 0 -0.00385543
0 0 -0.00334975
0 0 -0.00279993
0 0 -0.0022466
0 0 -0.0017182
0 0 -0.00123844
0 0 -0.00105341
0 0 -0.000873039
0 0 -0.000580724
0 0 -0.000347486
0 0 -0.000161517
0 0 0
0 0 0
0 0 -0.000148656
0 0 -0.000316905
0 0 -0.000522347
0 0 -0.000775609
0 0 -0.000936315
0 0 -0.00113838
0 0 -0.00162001
0 0 -0.00213517
0 0 -0.00266738
0 0 -0.00319437
0 0 -0.00368391
0 0 -0.00407997
0 0 -0.00425483
0 0 -0.00446554
0 0 -0.00483178
0 0 -0.00504376
0 0 -0.00510388
0 0 -0.00512114
0 0 -0.00511561
0 0 -0.00509309
0 0 -0.00502354
0 0 -0.00480457
0 0 -0.00443464
0 0 -0.00422358
0 0 -0.00404941
0 0 -0.00365734
0 0 -0.00317406
0 0 -0.0026544
0 0 -0.00212944
0 0 -0.00162034
0 0 -0.00114274
0 0 -0.000941386
0 0 -0.000780052
0 0 -0.000524811
0 0 -0.000318093
0 0 -0.000149115
0 0 0
0 0 0
0 0 -0.000111938
0 0 -0.000237147
0 0 -0.000387407
0 0 -0.000570633
0 0 -0.000687547
0 0 -0.000837868
0 0 -0.00118987
0 0 -0.00156483
0 0 -0.00195139
0 0 -0.00233489
0 0 -0.00269548
0 0 -0.00300508
0 0 -0.00314247
0 0 -0.0032849
0 0 -0.00352566
0 0 -0.00367816
0 0 -0.00374406
0 0 -0.00376021
0 0 -0.00375615
0 0 -0.00373615
0 0 -0.00366338
0 0 -0.00350567
0 0 -0.00326188
0 0 -0.00311905
0 0 -0.00298221
0 0 -0.00267564
0 0 -0.00231955
0 0 -0.00194125
0 0 -0.0015598
0 0 -0.00118921
0 0 -0.000840416
0 0 -0.000690908
0 0 -0.000573848
0 0 -0.000389456
0 0 -0.000238265
0 0 -0.000112413
0 0 0
0 0 0
0 0 -5.9727e-05
0 0 -0.000126065
0 0 -0.000204861
0 0 -0.000300261
0 0 -0.00036102
0 0 -0.000439081
0 0 -0.000620842
0 0 -0.00081447
0 0 -0.00101415
0 0 -0.00121262
0 0 -0.00140057
0 0 -0.00156607
0 0 -0.00163943
0 0 -0.00171047
0 0 -0.00182854
0 0 -0.0019069
0 0 -0.00194633
0 0 -0.00195572
0 0 -0.00195361
0 0 -0.00194221
0 0 -0.00189923
0 0 -0.00181814
0 0 -0.00169841
0 0 -0.00162712
0 0 -0.00155405
0 0 -0.00139014
0 0 -0.0012045
0 0 -0.00100868
0 0 -0.000811619
0 0 -0.000620256
0 0 -0.000440237
0 0 -0.000362665
0 0 -0.000301903
0 0 -0.000205984
0 0 -0.000126714
0 0 -6.00146e-05
0 0 0
0 0 0
0 0 0
0 0 0
0 0 0
0 0 0
0 0 0
0 0 0
0 0 0
0 0 0
0 0 0
0 0 0
0 0 0
0 0 0
0 0 0
0 0 0
0 0 0
0 0 0
0 0 0
0 0 0
0 0 0
0 0 0
0 0 0
0 0 0
0 0 0
0 0 0
0 0 0
0 0 0
0 0 0
0 0 0
0 0 0
0 0 0
0 0 0
0 0 0
0 0 0
0 0 0
0 0 0
0 0 0
0 0 0
0 0 0
0 6.00827e-05 0
0 0.000127066 0
0 0.000207055 0
0 0.000304371 0
0 0.000366375 0
0 0.000445861 0
0 0.000630938 0
0 0.000828243 0
0 0.00103173 0
0 0.00123395 0
0 0.00142545 0
0 0.00159415 0
0 0.00166894 0
0 0.00174129 0
0 0.00186155 0
0 0.0019415 0
0 0.00198189 0
0 0.00199153 0
0 0.00198943 0
0 0.00197782 0
0 0.00193396 0
0 0.00185145 0
0 0.0017298 0
0 0.0016574 0
0 0.00158314 0
0 0.00141661 0
0 0.00122819 0
0 0.00102957 0
0 0.000829792 0
0 0.000635878 0
0 0.000453458 0
0 0.000374693 0
0 0.000312723 0
0 0.000214304 0
0 0.000132375 0
0 6.28812e-05 0
0 0 0
6.07866e-05 0 0
6.75388e-05 5.24243e-05 6.0856e-05
8.02698e-05 0.000111808 0.000129224
9.72437e-05 0.000184362 0.000212028
0.000123657 0.000274084 0.000314571
0.000158444 0.000331517 0.000381801
0.000184306 0.000405264 0.000468966
0.0001963 0.000578986 0.000671149
0.000202353 0.000764114 0.000887622
0.000201073 0.000954889 0.00111257
0.000190434 0.00114372 0.00133973
0.000167844 0.00131994 0.00156201
0.000148926 0.00146725 0.00177145
0.000144208 0.00153272 0.00186271
0.000120061 0.00160542 0.00193472
8.01508e-05 0.00173032 0.00204428
4.1034e-05 0.00180606 0.00212693
2.02494e-05 0.0018335 0.00218501
-8.00345e-07 0.0018405 0.00219854
-2.16198e-05 0.00183857 0.00219594
-4.19553e-05 0.00182974 0.00217996
-8.02439e-05 0.00179908 0.00211755
-0.000119052 0.00172101 0.00203151
-0.000142003 0.00159502 0.00191981
-0.000145607 0.00152234 0.00184746
-0.000163447 0.00145734 0.00175667
-0.000185186 0.00131201 0.00154943
-0.000195312 0.00113871 0.00133011
-0.000196436 0.000953352 0.00110622
-0.000190581 0.000766218 0.000884424
-0.000179115 0.000584476 0.000670647
-0.000154238 0.000413415 0.000470537
-0.000120656 0.000340351 0.000383947
-9.51389e-05 0.000282894 0.000316653
-7.86467e-05 0.000191961 0.000213389
-6.62083e-05 0.000117349 0.000129994
-5.95946e-05 5.53389e-05 6.11937e-05
0 0 0
0.000113804 0 0
0.000127345 3.666e-05 0.000114713
0.000152929 7.99438e-05 0.000245006
0.000186653 0.000135986 0.000405788
0.000237882 0.000207827 0.000609282
0.000305091 0.000252971 0.000745643
0.000356907 0.000306362 0.000923223
0.000380067 0.000439852 0.00133592
0.000391647 0.000584107 0.00177701
0.000388413 0.000733769 0.00223409
0.00036527 0.000881145 0.00269495
0.000313986 0.00101372 0.00314605
0.000278932 0.00110345 0.00357235
0.000288844 0.00114237 0.00375866
0.000244484 0.00121198 0.00390564
0.000155856 0.00133969 0.00412976
6.88942e-05 0.00140078 0.00429864
3.50103e-05 0.00139597 0.00441713
-1.63202e-06 0.00139733 0.00444455
-3.78429e-05 0.0013959 0.0044393
-7.08838e-05 0.00139316 0.00440692
-0.000156175 0.00139547 0.0042797
-0.000242567 0.00133274 0.00410406
-0.000284642 0.0012046 0.00387579
-0.000272764 0.0011352 0.00372823
-0.000305764 0.0010966 0.00354288
-0.000355318 0.00100828 0.00312106
-0.000377409 0.000878099 0.002676
-0.000380295 0.000733731 0.00222183
-0.000369079 0.000587388 0.00177119
-0.00034698 0.000446409 0.00133551
-0.000297187 0.000315594 0.000926738
-0.000232386 0.000262788 0.000750117
-0.000182869 0.000217477 0.000613423
-0.000150019 0.000144224 0.000408291
-0.000124956 8.59142e-05 0.000246336
-0.00011166 3.979e-05 0.000115273
0 0 0
0.000150859 0 0
0.000170809 1.22851e-05 0.000154192
0.00020874 2.93848e-05 0.000332733
0.000257695 5.63858e-05 0.000560828
0.000326908 9.42613e-05 0.000862676
0.00041033 0.000113636 0.00107546
0.000488518 9.82469e-05 0.00135258
0.000522209 0.000104722 0.00199972
0.000539103 0.000129235 0.002687
0.000533606 0.000162791 0.00339382
0.000495794 0.000197778 0.00410324
0.000401919 0.000224406 0.00479702
0.000355236 0.000190904 0.00545671
0.000426722 0.000167309 0.00574691
0.000371168 0.000215052 0.00597474
0.000216407 0.000310347 0.0063243
6.40346e-05 0.000327787 0.00658833
3.80704e-05 0.000265131 0.00677438
-2.37927e-06 0.000260432 0.0068167
-4.22779e-05 0.000260261 0.00680874
-6.71782e-05 0.00026477 0.0067589
-0.000217072 0.000326838 0.00655958
-0.000368462 0.000309345 0.0062855
-0.000420941 0.000214915 0.0059301
-0.000347304 0.000167695 0.00570163
-0.000391222 0.00019123 0.00541292
-0.000482458 0.000224843 0.00476005
-0.000518657 0.000199231 0.0040756
-0.000523535 0.00016583 0.0033766
-0.000507051 0.000134436 0.00267984
-0.000474924 0.000112661 0.00200078
-0.000399956 0.000108975 0.00135891
-0.000320127 0.000124803 0.0010825
-0.000253127 0.000104936 0.000868541
-0.000205195 6.54317e-05 0.000563834
-0.000167867 3.59183e-05 0.000334129
-0.000148205 1.57027e-05 0.000154723
0 0 0
0.0001633 0 0
0.000187786 -2.85792e-05 0.000171549
0.000235056 -5.773e-05 0.000375725
0.000294034 -8.46254e-05 0.00065102
0.000363305 -9.80797e-05 0.00104675
0.000376704 -7.45066e-05 0.00136256
0.000491749 -0.000381796 0.00176103
0.000543331 -0.000850119 0.00270974
0.000569257 -0.00119549 0.00369674
0.000565278 -0.00151195 0.00469396
0.000519296 -0.00180819 0.00568413
0.000365591 -0.00204332 0.00664629
0.000305529 -0.00204068 0.0075679
0.000519924 -0.00201972 0.00797865
0.000464551 -0.00224393 0.00829811
0.000232477 -0.00268236 0.00879791
5.6369e-07 -0.00280036 0.00917728
2.82697e-05 -0.00259723 0.00944672
-2.54341e-06 -0.00257531 0.00950536
-3.28524e-05 -0.00257254 0.00949468
-4.30525e-06 -0.00259176 0.00942593
-0.000233241 -0.00278947 0.00913856
-0.000461078 -0.00266769 0.008746
-0.000513242 -0.00222816 0.00823928
-0.000297901 -0.0020042 0.00791933
-0.000355024 -0.00202477 0.00751059
-0.000505283 -0.00202795 0.00659799
-0.000549213 -0.00179529 0.00564864
-0.000552186 -0.00150178 0.00467313
-0.000526361 -0.00118713 0.00369031
-0.000476578 -0.00084111 0.00271509
-0.000366445 -0.000368578 0.00177229
-0.000357809 -6.05136e-05 0.00137176
-0.000290108 -8.61922e-05 0.00105259
-0.000231773 -7.44995e-05 0.000653044
-0.000184952 -5.0383e-05 0.000376327
-0.000160704 -2.47366e-05 0.000171676
0 0 0
0.000149008 0 0
0.000173043 -7.80588e-05 0.000158689
0.000221091 -0.000166081 0.000350605
0.000286192 -0.000269888 0.000619241
0.000384996 -0.000370805 0.00103889
6.68862e-05 -0.000342684 0.00147097
0.000255026 -0.000428389 0.00195027
0.000368151 -0.000625874 0.00318717
0.0004086 -0.000836295 0.00440631
0.000414808 -0.00105364 0.00561113
0.000399515 -0.00127009 0.0067942
0.000364878 -0.00147782 0.0079279
0.000324645 -0.00166753 0.008965
0.000294 -0.00175164 0.00942382
0.000243841 -0.00182751 0.00983587
0.000172288 -0.00195222 0.0105072
0.000101252 -0.00203914 0.0109701
4.95464e-05 -0.00208933 0.011235
-1.57492e-06 -0.00210124 0.0112975
-5.22612e-05 -0.0020991 0.0112853
-0.000103115 -0.00208515 0.0112112
-0.000172004 -0.0020313 0.0109255
-0.000240675 -0.00194176 0.0104476
-0.000288441 -0.00181584 0.00976935
-0.000317517 -0.00173994 0.00935718
-0.000355513 -0.00165616 0.00890036
-0.000387741 -0.00146813 0.007873
-0.000401236 -0.00126304 0.00675417
-0.00039375 -0.00104973 0.00558856
-0.000352538 -0.000835564 0.00440137
-0.000240072 -0.000627642 0.00319745
-5.8725e-05 -0.000429626 0.0019689
-0.000383328 -0.000336267 0.00148004
-0.000283329 -0.000359902 0.00104307
-0.000218351 -0.000258856 0.000620314
-0.000170599 -0.000157851 0.000350737
-0.00014675 -7.37397e-05 0.000158621
0 0 0
0.000109931 0 0
0.000128804 -0.000109776 0.000116881
0.000168573 -0.000238042 0.000259024
0.000234424 -0.00040525 0.000458858
0.000410765 -0.000636855 0.000764657
-2.87396e-05 -0.00083991 0.00103725
0.0001481 -0.000817489 0.000377355
0.000255438 -0.00095656 0.000444764
0.00029272 -0.00120527 0.000606253
0.000299658 -0.00149191 0.000769895
0.000289109 -0.0017858 0.000930899
0.00026401 -0.00206949 0.00108531
0.00023503 -0.00232852 0.00122662
0.000213017 -0.00244375 0.00128911
0.000176971 -0.00254814 0.00134521
0.000125164 -0.00272135 0.00143642
7.33597e-05 -0.00284346 0.00149897
3.54783e-05 -0.00291448 0.00153429
-2.02078e-06 -0.00293132 0.00154236
-3.9192e-05 -0.00292803 0.00153974
-7.64318e-05 -0.00290807 0.00152918
-0.000126623 -0.00283143 0.00148937
-0.00017628 -0.00270531 0.00142362
-0.00021056 -0.0025302 0.00133092
-0.000231422 -0.00242572 0.00127479
-0.000258772 -0.00231095 0.00121271
-0.000282169 -0.0020544 0.00107343
-0.000291563 -0.00177468 0.000922117
-0.000284033 -0.00148554 0.000764735
-0.000246917 -0.00120356 0.000604723
-0.000141528 -0.000957731 0.000446299
3.02536e-05 -0.00081516 0.000380003
-0.000407678 -0.000827872 0.00103529
-0.000232081 -0.00062376 0.000765588
-0.000166545 -0.000393129 0.000459334
-0.000127035 -0.000229165 0.000259071
-0.000108304 -0.000105144 0.000116823
0 0 0
-3.76703e-08 0 0
-4.49687e-08 -0.000109775 -2.73055e-08
-6.55857e-08 -0.000238039 -5.40891e-08
-1.17213e-07 -0.000405248 -7.76356e-08
-2.60414e-07 -0.00063686 -8.81283e-08
1.60423e-08 -0.000839918 -6.99751e-08
3.38016e-08 -0.000817497 -1.95874e-08
4.48809e-08 -0.000956569 -2.36813e-09
5.35157e-08 -0.00120528 -1.09844e-09
5.9665e-08 -0.00149191 -7.20956e-10
6.31281e-08 -0.00178581 -3.79503e-10
6.40731e-08 -0.00206949 -6.49089e-11
6.33808e-08 -0.00232852 1.99321e-10
6.24811e-08 -0.00244375 3.02011e-10
6.05122e-08 -0.00254813 3.94293e-10
5.66077e-08 -0.00272135 5.25426e-10
5.20303e-08 -0.00284346 5.94111e-10
4.83931e-08 -0.00291448 6.12189e-10
4.46949e-08 -0.00293132 6.06464e-10
4.0985e-08 -0.00292803 5.70867e-10
3.73376e-08 -0.00290807 5.46377e-10
3.30394e-08 -0.00283143 4.90851e-10
2.90727e-08 -0.0027053 4.20525e-10
2.59035e-08 -0.00253019 3.37507e-10
2.34165e-08 -0.00242572 2.89246e-10
2.04518e-08 -0.00231095 2.61223e-10
1.75943e-08 -0.0020544 1.99969e-10
1.51179e-08 -0.00177468 1.39333e-10
1.284e-08 -0.00148554 8.73171e-11
1.05014e-08 -0.00120356 4.56488e-11
7.48029e-09 -0.00095773 3.0694e-11
2.7021e-09 -0.000815155 -6.10569e-10
-3.75509e-07 -0.000827864 -1.5517e-08
-1.51961e-07 -0.00062375 2.48858e-08
-7.13998e-08 -0.000393128 3.51002e-08
-3.91111e-08 -0.000229165 2.65831e-08
-2.76301e-08 -0.000105145 1.36161e-08
0 0 0
-0.000110005 0 0
-0.000128893 -7.80523e-05 -0.000116934
-0.000168704 -0.000166066 -0.000259129
-0.000234665 -0.000269859 -0.000459007
-0.000411293 -0.000370764 -0.000764822
2.87685e-05 -0.000342698 -0.00103738
-0.000148036 -0.0004284 -0.00037741
-0.000255349 -0.000625886 -0.00044479
-0.000292612 -0.000836305 -0.000606271
-0.000299538 -0.00105365 -0.000769908
-0.000288983 -0.00127009 -0.000930905
-0.000263882 -0.00147782 -0.00108531
-0.000234904 -0.00166753 -0.00122661
-0.000212892 -0.00175164 -0.00128911
-0.00017685 -0.0018275 -0.0013452
-0.000125052 -0.00195221 -0.00143641
-7.32567e-05 -0.00203914 -0.00149896
-3.53826e-05 -0.00208933 -0.00153428
2.10906e-06 -0.00210124 -0.00154235
3.92729e-05 -0.00209909 -0.00153973
7.65054e-05 -0.00208514 -0.00152917
0.000126688 -0.0020313 -0.00148937
0.000176337 -0.00194176 -0.00142362
0.000210612 -0.00181583 -0.00133092
0.000231467 -0.00173993 -0.00127479
0.000258812 -0.00165615 -0.00121271
0.000282204 -0.00146813 -0.00107343
0.000291593 -0.00126304 -0.000922116
0.000284059 -0.00104973 -0.000764735
0.000246939 -0.000835564 -0.000604723
0.000141546 -0.000627641 -0.0004463
-3.02421e-05 -0.000429618 -0.000380007
0.000406932 -0.000336238 -0.00103532
0.000231768 -0.000359947 -0.000765544
0.0001664 -0.000258885 -0.000459267
0.000126957 -0.000157865 -0.000259019
0.000108249 -7.3745e-05 -0.000116796
0 0 0
-0.000149079 0 0
-0.000173127 -2.85654e-05 -0.000158739
-0.000221216 -5.76951e-05 -0.000350705
-0.000286427 -8.45424e-05 -0.000619383
-0.00038558 -9.78427e-05 -0.00103904
-6.68591e-05 -7.39152e-05 -0.00147109
-0.000254965 -0.000381254 -0.00195037
-0.000368065 -0.000849612 -0.00318726
-0.000408495 -0.00119505 -0.00440637
-0.000414691 -0.00151158 -0.00561117
-0.000399391 -0.00180791 -0.00679421
-0.000364753 -0.00204313 -0.0079279
-0.000324522 -0.0020406 -0.00896497
-0.000293877 -0.00201968 -0.00942379
-0.000243723 -0.00224393 -0.00983584
-0.000172178 -0.00268245 -0.0105072
-0.000101151 -0.00280054 -0.0109701
-4.94528e-05 -0.00259747 -0.011235
1.66128e-06 -0.00257559 -0.0112975
5.23404e-05 -0.00257289 -0.0112853
0.000103187 -0.00259214 -0.0112112
0.000172068 -0.00278993 -0.0109254
0.000240732 -0.0026682 -0.0104476
0.000288492 -0.00222869 -0.00976935
0.00031756 -0.00200473 -0.00935718
0.000355551 -0.00202533 -0.00890036
0.000387775 -0.00202859 -0.00787301
0.000401266 -0.00179597 -0.00675419
0.000393775 -0.00150249 -0.00558858
0.00035256 -0.00118786 -0.00440139
0.000240093 -0.000841857 -0.00319748
5.87571e-05 -0.000369326 -0.00196894
0.000382508 -6.13356e-05 -0.00148008
0.000283024 -8.65092e-05 -0.00104303
0.000218215 -7.46001e-05 -0.00062025
0.000170525 -5.04202e-05 -0.000350688
0.000146698 -2.47499e-05 -0.000158595
0 0 0
-0.000163364 0 0
-0.000187859 1.23013e-05 -0.000171595
-0.000235157 2.9423e-05 -0.000375816
-0.000294191 5.64626e-05 -0.000651152
-0.000363535 9.44187e-05 -0.0010469
-0.000376727 0.000113869 -0.00136271
-0.000491707 9.84828e-05 -0.00176117
-0.000543277 0.000104933 -0.00270987
-0.000569192 0.000129417 -0.00369685
-0.000565205 0.00016294 -0.00469404
-0.00051922 0.00019789 -0.00568418
-0.000365517 0.00022448 -0.00664631
-0.000305453 0.000190939 -0.00756789
-0.000519847 0.000167324 -0.00797863
-0.00046448 0.000215047 -0.00829807
-0.00023241 0.000310304 -0.00879787
-4.9677e-07 0.000327709 -0.00917722
-2.8211e-05 0.000265017 -0.00944666
2.59566e-06 0.000260302 -0.0095053
3.28968e-05 0.000260104 -0.00949461
4.33614e-06 0.0002646 -0.00942586
0.000233279 0.000326649 -0.00913849
0.000461128 0.000309135 -0.00874593
0.000513289 0.000214679 -0.00823922
0.000297908 0.000167446 -0.00791928
0.000355026 0.000190977 -0.00751053
0.000505297 0.000224586 -0.00659792
0.000549228 0.000198963 -0.00564858
0.0005522 0.000165552 -0.00467307
0.000526375 0.000134149 -0.00369025
0.000476598 0.000112365 -0.00271504
0.000366404 0.000108663 -0.00177225
0.000357494 0.000124498 -0.00137171
0.000289912 0.00010474 -0.00105253
0.000231668 6.53455e-05 -0.00065298
0.00018489 3.58803e-05 -0.000376281
0.000160658 1.5688e-05 -0.000171653
0 0 0
-0.000150905 0 0
-0.00017086 3.66753e-05 -0.000154227
-0.000208801 7.99772e-05 -0.000332803
-0.000257772 0.000136045 -0.00056093
-0.000326986 0.000207923 -0.000862801
-0.000410347 0.00025309 -0.00107559
-0.000488501 0.000306484 -0.00135271
-0.000522183 0.000439961 -0.00199983
-0.000539071 0.000584202 -0.0026871
-0.000533569 0.000733845 -0.00339389
-0.000495756 0.0008812 -0.00410329
-0.000401882 0.00101375 -0.00479704
-0.000355198 0.00110347 -0.0054567
-0.000426685 0.00114238 -0.00574689
-0.000371134 0.00121198 -0.00597471
-0.000216375 0.00133966 -0.00632426
-6.40032e-05 0.00140074 -0.00658828
-3.80434e-05 0.0013959 -0.00677432
2.40247e-06 0.00139726 -0.00681663
4.22965e-05 0.00139581 -0.00680867
6.71905e-05 0.00139307 -0.00675883
0.000217089 0.00139537 -0.00655951
0.000368486 0.00133263 -0.00628542
0.000420962 0.00120449 -0.00593003
0.000347305 0.00113508 -0.00570155
0.000391219 0.00109648 -0.00541285
0.000482461 0.00100816 -0.00475997
0.000518662 0.000877971 -0.00407553
0.00052354 0.0007336 -0.00337653
0.000507056 0.000587253 -0.00267976
0.000474929 0.000446271 -0.00200071
0.000399929 0.000315451 -0.00135884
0.000320027 0.000262652 -0.00108244
0.000253041 0.000217372 -0.000868477
0.000205139 0.000144167 -0.000563782
0.000167828 8.58854e-05 -0.000334094
0.000148174 3.97778e-05 -0.000154706
0 0 0
-0.000113834 0 0
-0.000127376 5.24385e-05 -0.000114737
-0.000152964 0.000111837 -0.000245053
-0.000186691 0.000184409 -0.000405856
-0.000237914 0.000274151 -0.000609367
-0.0003051 0.000331593 -0.000745733
-0.0003569 0.000405342 -0.000923313
-0.000380055 0.000579057 -0.00133601
-0.000391631 0.000764174 -0.00177708
-0.000388394 0.000954936 -0.00223414
-0.000365251 0.00114375 -0.00269498
-0.000313967 0.00131996 -0.00314606
-0.000278914 0.00146725 -0.00357235
-0.000288826 0.00153272 -0.00375865
-0.000244468 0.00160541 -0.00390562
-0.000155841 0.0017303 -0.00412973
-6.88797e-05 0.00180603 -0.0042986
-3.4998e-05 0.00183346 -0.00441708
1.64226e-06 0.00184045 -0.0044445
3.78508e-05 0.00183852 -0.00443925
7.08889e-05 0.00182969 -0.00440687
0.000156182 0.00179902 -0.00427964
0.000242578 0.00172095 -0.00410401
0.000284651 0.00159495 -0.00387573
0.000272764 0.00152227 -0.00372818
0.000305761 0.00145727 -0.00354282
0.000355318 0.00131194 -0.003121
0.00037741 0.00113863 -0.00267594
0.000380297 0.000953278 -0.00222177
0.00036908 0.000766142 -0.00177114
0.000346981 0.000584399 -0.00133546
0.000297174 0.000413338 -0.000926686
0.000232349 0.000340277 -0.000750067
0.000182831 0.000282832 -0.000613377
0.000149991 0.000191922 -0.000408255
0.000124933 0.000117327 -0.000246312
0.000111642 5.5329e-05 -0.000115261
0 0 0
-6.08014e-05 0 0
-6.7554e-05 6.00963e-05 -6.08678e-05
-8.02857e-05 0.000127094 -0.000129248
-9.72598e-05 0.000207096 -0.000212062
-0.00012367 0.000304427 -0.000314614
-0.000158448 0.000366436 -0.000381846
-0.000184303 0.000445922 -0.000469012
-0.000196295 0.000630994 -0.00067119
-0.000202347 0.000828291 -0.000887657
-0.000201065 0.00103177 -0.0011126
-0.000190426 0.00123398 -0.00133975
-0.000167836 0.00142546 -0.00156202
-0.000148919 0.00159416 -0.00177145
-0.000144201 0.00166894 -0.0018627
-0.000120055 0.00174128 -0.00193471
-8.01448e-05 0.00186154 -0.00204426
-4.10283e-05 0.00194147 -0.00212691
-2.02446e-05 0.00198186 -0.00218499
8.04261e-07 0.00199149 -0.00219852
2.16227e-05 0.00198939 -0.00219591
4.19572e-05 0.00197778 -0.00217993
8.02467e-05 0.00193392 -0.00211752
0.000119056 0.0018514 -0.00203148
0.000142006 0.00172975 -0.00191978
0.000145606 0.00165735 -0.00184743
0.000163445 0.00158308 -0.00175664
0.000185186 0.00141655 -0.0015494
0.000195312 0.00122814 -0.00133008
0.000196436 0.00102951 -0.00110619
0.000190581 0.000829737 -0.000884395
0.000179114 0.000635823 -0.000670618
0.000154233 0.000453403 -0.00047051
0.000120643 0.000374641 -0.000383921
9.51242e-05 0.000312677 -0.00031663
7.86346e-05 0.000214273 -0.000213371
6.61983e-05 0.000132356 -0.000129982
5.95858e-05 6.28724e-05 -6.11879e-05
0 0 0
0 0 0
0 0 0
0 0 0
0 0 0
0 0 0
0 0 0
0 0 0
0 0 0
0 0 0
0 0 0
0 0 0
0 0 0
0 0 0
0 0 0
0 0 0
0 0 0
0 0 0
0 0 0
0 0 0
0 0 0
0 0 0
0 0 0
0 0 0
0 0 0
0 0 0
0 0 0
0 0 0
0 0 0
0 0 0
0 0 0
0 0 0
0 0 0
0 0 0
0 0 0
0 0 0
0 0 0
0 0 0
0 0 0
0 0 0
0 0.000222623 0
0 0.000473067 0
0 0.000776691 0
0 0.00115252 0
0 0.00139722 0
0 0.00171309 0
0 0.0024466 0
0 0.00323146 0
0 0.00404548 0
0 0.00486398 0
0 0.00565815 0
0 0.00639434 0
0 0.00671647 0
0 0.00698448 0
0 0.00740296 0
0 0.00770766 0
0 0.00790548 0
0 0.00795181 0
0 0.00794272 0
0 0.00788784 0
0 0.00767507 0
0 0.0073591 0
0 0.00693421 0
0 0.00666579 0
0 0.00634605 0
0 0.00561959 0
0 0.00483859 0
0 0.00403518 0
0 0.00323652 0
0 0.00246565 0
0 0.00174323 0
0 0.00143042 0
0 0.00118584 0
0 0.000805461 0
0 0.000494085 0
0 0.000233691 0
0 0 0
0.000226472 0 0
0.000253742 0.000195817 6.01505e-05
0.000305912 0.000421016 0.000129042
0.000376821 0.000703983 0.000214764
0.00048937 0.00106791 0.000323419
0.000631081 0.00131325 0.000394801
0.000731935 0.00163231 0.000486335
0.000782408 0.00237728 0.00069981
0.00081104 0.00317207 0.00093441
0.000815395 0.00399274 0.00118617
0.000791357 0.00481541 0.00145015
0.000734061 0.00561185 0.00171956
0.00064292 0.0063465 0.00198569
0.000535312 0.00666947 0.0020974
0.000418782 0.00694573 0.00216598
0.000306533 0.00738223 0.00224653
0.000201267 0.00769223 0.00231049
9.7287e-05 0.0078833 0.00236778
-3.30358e-06 0.00792797 0.00237989
-0.00010287 0.00791892 0.00237582
-0.000204844 0.00786572 0.0023599
-0.000306767 0.0076597 0.00229593
-0.000414578 0.00733867 0.00222654
-0.000525827 0.00689636 0.00214222
-0.000628044 0.00661995 0.00207305
-0.000714512 0.00629936 0.00196241
-0.000768566 0.00557427 0.00170055
-0.000790726 0.00479104 0.00143614
-0.000785891 0.00398363 0.00117727
-0.000758139 0.00317868 0.000930181
-0.000709788 0.00239839 0.000699402
-0.000613085 0.00166494 0.000488774
-0.000476717 0.00134893 0.000398011
-0.000368014 0.00110345 0.000326471
-0.000299129 0.000734406 0.000216689
-0.000248229 0.000443112 0.000130105
-0.000221568 0.000207414 6.06099e-05
0 0 0
0.000425723 0 0
0.000481746 0.000140769 0.00011323
0.000590527 0.00031245 0.000244679
0.000740903 0.000549603 0.000411878
0.000979065 0.000888376 0.000628931
0.00126747 0.00114127 0.000774561
0.00147419 0.00146505 0.000962021
0.00157356 0.002235 0.00140118
0.00162756 0.00304727 0.00188468
0.00163382 0.00387412 0.00240496
0.00158386 0.00469516 0.0029538
0.00146551 0.00548505 0.00351889
0.00128652 0.00620633 0.00408104
0.00108614 0.00652636 0.00431851
0.000854674 0.00681524 0.00446684
0.000617575 0.00728359 0.00464035
0.000395061 0.00760274 0.00477315
0.000190586 0.00778063 0.00488891
-7.18304e-06 0.00782234 0.0049129
-0.000202936 0.00781364 0.00490425
-0.000403443 0.00776369 0.00487211
-0.000619015 0.00757123 0.0047421
-0.000846886 0.00724186 0.00459785
-0.00106786 0.0067691 0.00441665
-0.00125799 0.00648059 0.00426731
-0.00142776 0.00616278 0.00403226
-0.00153943 0.00545035 0.00347937
-0.00158547 0.00467332 0.00292505
-0.00157809 0.00386757 0.00238712
-0.00152571 0.00305693 0.00187671
-0.00143062 0.00226018 0.0014011
-0.00123261 0.00150287 0.000967452
-0.000955224 0.00118199 0.000781278
-0.000724704 0.000928311 0.000635038
-0.000578182 0.000583182 0.000415442
-0.000471763 0.00033657 0.000246523
-0.00041686 0.000153355 0.000113991
0 0 0
0.000569191 0 0
0.000655349 5.61299e-05 0.000151882
0.000828151 0.000139869 0.000332397
0.00107825 0.000292607 0.000571321
0.00148194 0.000583876 0.000896339
0.00191123 0.000882495 0.00112461
0.00223919 0.00119844 0.00141653
0.00237994 0.00202319 0.00210779
0.00244806 0.0028592 0.00286942
0.00244846 0.00367866 0.00369047
0.00236772 0.00447326 0.00456351
0.00218159 0.00522588 0.00547423
0.00192234 0.00590016 0.00638974
0.00166041 0.00620216 0.00678153
0.00132073 0.00649797 0.00703764
0.000936229 0.00700007 0.00734027
0.000574288 0.00732941 0.00755447
0.000276664 0.00749166 0.00772657
-1.19296e-05 0.00753111 0.00776098
-0.000297634 0.00752367 0.00774671
-0.000589516 0.0074771 0.0076988
-0.000940458 0.00730185 0.00750299