<?xml version="1.0"?>
<VTKFile type="RectilinearGrid" version="0.1" byte_order="LittleEndian">
<RectilinearGrid WholeExtent="0 37 0 14 0 34">
<Piece Extent="0 37 0 14 0 34">
<PointData>
<DataArray type="Float32" Name="MVP" NumberOfComponents="3" format="ascii">
0 0 0
0 0 0
0 0 0
0 0 0
0 0 0
0 0 0
0 0 0
0 0 0
0 0 0
0 0 0
0 0 0
0 0 0
0 0 0
0 0 0
0 0 0
0 0 0
0 0 0
0 0 0
0 0 0
0 0 0
0 0 0
0 0 0
0 0 0
0 0 0
0 0 0
0 0 0
0 0 0
0 0 0
0 0 0
0 0 0
0 0 0
0 0 0
0 0 0
0 0 0
0 0 0
0 0 0
0 0 0
0 0 0
0 0 0
0 0 1.23239e-05
0 0 2.59768e-05
0 0 4.21206e-05
0 0 6.15503e-05
0 0 7.38979e-05
0 0 8.97581e-05
0 0 0.000126469
0 0 0.000165314
0 0 0.000205211
0 0 0.000244773
0 0 0.000282144
0 0 0.000314869
0 0 0.000329324
0 0 0.000343389
0 0 0.000366611
0 0 0.000381593
0 0 0.000388534
0 0 0.000389948
0 0 0.000388636
0 0 0.000385982
0 0 0.000376838
0 0 0.000360163
0 0 0.000335919
0 0 0.000321698
0 0 0.000307412
0 0 0.00027564
0 0 0.000239656
0 0 0.000201683
0 0 0.000163359
0 0 0.000125894
0 0 9.02767e-05
0 0 7.47423e-05
0 0 6.24176e-05
0 0 4.27098e-05
0 0 2.63127e-05
0 0 1.24706e-05
0 0 0
0 0 0
0 0 2.3106e-05
0 0 4.88714e-05
0 0 7.96198e-05
0 0 0.000116833
0 0 0.000140524
0 0 0.00017105
0 0 0.000242024
0 0 0.000317013
0 0 0.00039399
0 0 0.000470176
0 0 0.000541607
0 0 0.00060246
0 0 0.000629377
0 0 0.000657593
0 0 0.000705056
0 0 0.000734176
0 0 0.000745371
0 0 0.000747676
0 0 0.000745168
0 0 0.000740488
0 0 0.00072506
0 0 0.000692735
0 0 0.000643429
0 0 0.000614969
0 0 0.000588369
0 0 0.000529309
0 0 0.00046056
0 0 0.000387468
0 0 0.000313548
0 0 0.000241204
0 0 0.00017225
0 0 0.000142279
0 0 0.000118547
0 0 8.06962e-05
0 0 4.94447e-05
0 0 2.3344e-05
0 0 0
0 0 0
0 0 3.06976e-05
0 0 6.52872e-05
0 0 0.000107166
0 0 0.00015814
0 0 0.000190325
0 0 0.000231259
0 0 0.000327906
0 0 0.000430146
0 0 0.000535268
0 0 0.000639131
0 0 0.000735254
0 0 0.000811922
0 0 0.00084564
0 0 0.000887384
0 0 0.000959797
0 0 0.00100008
0 0 0.00100887
0 0 0.00101098
0 0 0.00100762
0 0 0.00100232
0 0 0.000987793
0 0 0.000943277
0 0 0.000868687
0 0 0.000826753
0 0 0.000793419
0 0 0.000719055
0 0 0.000626606
0 0 0.00052705
0 0 0.000426195
0 0 0.000327579
0 0 0.00023347
0 0 0.000193071
0 0 0.000160565
0 0 0.000108461
0 0 6.58792e-05
0 0 3.09132e-05
0 0 0
0 0 0
0 0 3.33241e-05
0 0 7.13471e-05
0 0 0.000118148
0 0 0.000174843
0 0 0.000208704
0 0 0.000245553
0 0 0.000340999
0 0 0.00044486
0 0 0.000553305
0 0 0.000660882
0 0 0.000759159
0 0 0.000825427
0 0 0.000852666
0 0 0.000903378
0 0 0.000994096
0 0 0.00103664
0 0 0.00103121
0 0 0.00103214
0 0 0.00102883
0 0 0.00102473
0 0 0.00102426
0 0 0.000977593
0 0 0.000885282
0 0 0.000834673
0 0 0.000807665
0 0 0.000743428
0 0 0.000648993
0 0 0.000546066
0 0 0.000442322
0 0 0.000342443
0 0 0.000249332
0 0 0.000212378
0 0 0.000177452
0 0 0.000119129
0 0 7.16173e-05
0 0 3.33607e-05
0 0 0
0 0 0
0 0 3.04105e-05
0 0 6.53569e-05
0 0 0.00010892
0 0 0.000162222
0 0 0.000193626
0 0 0.000197884
0 0 0.000242583
0 0 0.000308047
0 0 0.000381023
0 0 0.000455313
0 0 0.000526954
0 0 0.00059233
0 0 0.000621326
0 0 0.000647495
0 0 0.000690546
0 0 0.000720303
0 0 0.000736897
0 0 0.000740444
0 0 0.000738204
0 0 0.000732532
0 0 0.000712129
0 0 0.00067967
0 0 0.000635383
0 0 0.000609188
0 0 0.000580549
0 0 0.000516943
0 0 0.000448106
0 0 0.000377237
0 0 0.000307899
0 0 0.000245837
0 0 0.000203319
0 0 0.000197975
0 0 0.000164613
0 0 0.000109633
0 0 6.5461e-05
0 0 3.03719e-05
0 0 0
0 0 0
0 0 2.24007e-05
0 0 4.83087e-05
0 0 8.11737e-05
0 0 0.000123899
0 0 0.00015721
0 0 0.000150217
0 0 0.00017327
0 0 0.000216074
0 0 0.000265759
0 0 0.000316866
0 0 0.00036625
0 0 0.000411312
0 0 0.000431321
0 0 0.000449407
0 0 0.000479264
0 0 0.000500002
0 0 0.000511625
0 0 0.000514126
0 0 0.00051261
0 0 0.00050867
0 0 0.000494469
0 0 0.000471904
0 0 0.000441212
0 0 0.000423108
0 0 0.00040334
0 0 0.000359476
0 0 0.000312001
0 0 0.000263225
0 0 0.000215984
0 0 0.00017531
0 0 0.000153102
0 0 0.000159046
0 0 0.000125348
0 0 8.16765e-05
0 0 4.83922e-05
0 0 2.23766e-05
0 0 0
0 0 0
0 0 -2.48438e-08
0 0 -5.4029e-08
0 0 -9.53587e-08
0 0 -1.66733e-07
0 0 -2.43523e-07
0 0 -2.36045e-07
0 0 -2.1472e-07
0 0 -1.87347e-07
0 0 -1.54959e-07
0 0 -1.18978e-07
0 0 -8.09634e-08
0 0 -4.24191e-08
0 0 -2.34189e-08
0 0 -4.74473e-09
0 0 3.12941e-08
0 0 6.48894e-08
0 0 9.56034e-08
0 0 1.09791e-07
0 0 1.35784e-07
0 0 1.47592e-07
0 0 1.68872e-07
0 0 1.87268e-07
0 0 2.03003e-07
0 0 2.09939e-07
0 0 2.16257e-07
0 0 2.27204e-07
0 0 2.36211e-07
0 0 2.43507e-07
0 0 2.49277e-07
0 0 2.53644e-07
0 0 2.56698e-07
0 0 2.57606e-07
0 0 1.59573e-07
0 0 7.88703e-08
0 0 3.95388e-08
0 0 1.68086e-08
0 0 0
0 0 0
0 0 -2.24494e-05
0 0 -4.84149e-05
0 0 -8.13624e-05
0 0 -0.000124234
0 0 -0.000157701
0 0 -0.000150695
0 0 -0.000173705
0 0 -0.000216454
0 0 -0.000266072
0 0 -0.000317106
0 0 -0.000366412
0 0 -0.000411396
0 0 -0.000431366
0 0 -0.000449415
0 0 -0.000479199
0 0 -0.00049987
0 0 -0.000511431
0 0 -0.000513903
0 0 -0.000512335
0 0 -0.000508371
0 0 -0.000494128
0 0 -0.000471527
0 0 -0.000440804
0 0 -0.000422686
0 0 -0.000402905
0 0 -0.00035902
0 0 -0.000311527
0 0 -0.000262737
0 0 -0.000215484
0 0 -0.000174801
0 0 -0.000152588
0 0 -0.00015853
0 0 -0.000125025
0 0 -8.15188e-05
0 0 -4.83136e-05
0 0 -2.23433e-05
0 0 0
0 0 0
0 0 -3.04569e-05
0 0 -6.54577e-05
0 0 -0.000109099
0 0 -0.000162543
0 0 -0.000194121
0 0 -0.000198368
0 0 -0.000243025
0 0 -0.000308432
0 0 -0.00038134
0 0 -0.000455555
0 0 -0.000527117
0 0 -0.000592413
0 0 -0.00062137
0 0 -0.000647501
0 0 -0.000690478
0 0 -0.000720168
0 0 -0.000736699
0 0 -0.000740218
0 0 -0.000737927
0 0 -0.00073223
0 0 -0.000711786
0 0 -0.00067929
0 0 -0.000634972
0 0 -0.000608764
0 0 -0.000580113
0 0 -0.000516485
0 0 -0.00044763
0 0 -0.000376747
0 0 -0.000307398
0 0 -0.000245327
0 0 -0.000202803
0 0 -0.000197457
0 0 -0.000164304
0 0 -0.000109484
0 0 -6.53865e-05
0 0 -3.03402e-05
0 0 0
0 0 0
0 0 -3.33657e-05
0 0 -7.14362e-05
0 0 -0.0001183
0 0 -0.000175091
0 0 -0.00020902
0 0 -0.000245874
0 0 -0.000341289
0 0 -0.000445111
0 0 -0.00055351
0 0 -0.000661036
0 0 -0.000759261
0 0 -0.000825478
0 0 -0.000852691
0 0 -0.000903378
0 0 -0.000994047
0 0 -0.00103654
0 0 -0.00103107
0 0 -0.00103198
0 0 -0.00102864
0 0 -0.00102453
0 0 -0.00102404
0 0 -0.00097735
0 0 -0.000885012
0 0 -0.00083439
0 0 -0.000807379
0 0 -0.00074314
0 0 -0.000648698
0 0 -0.000545763
0 0 -0.000442013
0 0 -0.000342128
0 0 -0.00024901
0 0 -0.000212069
0 0 -0.000177226
0 0 -0.000119007
0 0 -7.15532e-05
0 0 -3.33328e-05
0 0 0
0 0 0
0 0 -3.0728e-05
0 0 -6.53504e-05
0 0 -0.000107267
0 0 -0.000158289
0 0 -0.000190496
0 0 -0.000231433
0 0 -0.000328065
0 0 -0.000430283
0 0 -0.000535379
0 0 -0.000639212
0 0 -0.000735306
0 0 -0.000811945
0 0 -0.00084565
0 0 -0.000887379
0 0 -0.000959766
0 0 -0.00100003
0 0 -0.00100879
0 0 -0.00101089
0 0 -0.00100752
0 0 -0.00100221
0 0 -0.000987675
0 0 -0.000943148
0 0 -0.000868544
0 0 -0.000826605
0 0 -0.00079327
0 0 -0.000718907
0 0 -0.000626455
0 0 -0.000526897
0 0 -0.00042604
0 0 -0.000327422
0 0 -0.000233312
0 0 -0.000192922
0 0 -0.000160443
0 0 -0.000108386
0 0 -6.58366e-05
0 0 -3.08939e-05
0 0 0
0 0 0
0 0 -2.31256e-05
0 0 -4.89115e-05
0 0 -7.96816e-05
0 0 -0.000116917
0 0 -0.000140618
0 0 -0.000171146
0 0 -0.000242111
0 0 -0.000317089
0 0 -0.00039405
0 0 -0.00047022
0 0 -0.000541633
0 0 -0.000602471
0 0 -0.00062938
0 0 -0.000657588
0 0 -0.000705037
0 0 -0.000734145
0 0 -0.000745328
0 0 -0.000747628
0 0 -0.000745112
0 0 -0.000740429
0 0 -0.000724996
0 0 -0.000692666
0 0 -0.000643353
0 0 -0.00061489
0 0 -0.00058829
0 0 -0.000529231
0 0 -0.000460482
0 0 -0.000387389
0 0 -0.000313469
0 0 -0.000241125
0 0 -0.000172171
0 0 -0.000142205
0 0 -0.000118483
0 0 -8.06535e-05
0 0 -4.94191e-05
0 0 -2.3332e-05
0 0 0
0 0 0
0 0 -1.23335e-05
0 0 -2.59961e-05
0 0 -4.21499e-05
0 0 -6.15891e-05
0 0 -7.39402e-05
0 0 -8.98009e-05
0 0 -0.000126508
0 0 -0.000165348
0 0 -0.000205238
0 0 -0.000244793
0 0 -0.000282155
0 0 -0.000314873
0 0 -0.000329325
0 0 -0.000343386
0 0 -0.000366602
0 0 -0.000381579
0 0 -0.000388515
0 0 -0.000389926
0 0 -0.000388611
0 0 -0.000385956
0 0 -0.000376809
0 0 -0.000360132
0 0 -0.000335885
0 0 -0.000321663
0 0 -0.000307378
0 0 -0.000275606
0 0 -0.000239622
0 0 -0.000201649
0 0 -0.000163324
0 0 -0.000125859
0 0 -9.02432e-05
0 0 -7.47105e-05
0 0 -6.23897e-05
0 0 -4.26905e-05
0 0 -2.63008e-05
0 0 -1.24649e-05
0 0 0
0 0 0
0 0 0
0 0 0
0 0 0
0 0 0
0 0 0
0 0 0
0 0 0
0 0 0
0 0 0
0 0 0
0 0 0
0 0 0
0 0 0
0 0 0
0 0 0
0 0 0
0 0 0
0 0 0
0 0 0
0 0 0
0 0 0
0 0 0
0 0 0
0 0 0
0 0 0
0 0 0
0 0 0
0 0 0
0 0 0
0 0 0
0 0 0
0 0 0
0 0 0
0 0 0
0 0 0
0 0 0
0 0 0
0 0 0
0 1.26666e-05 0
0 2.68678e-05 0
0 4.39467e-05 0
0 6.48209e-05 0
0 7.8089e-05 0
0 9.49913e-05 0
0 0.000134101 0
0 0.000175584 0
0 0.000218198 0
0 0.000260428 0
0 0.000300312 0
0 0.0003353 0
0 0.000350761 0
0 0.00036574 0
0 0.000390491 0
0 0.000406564 0
0 0.000414139 0
0 0.000415699 0
0 0.000414344 0
0 0.000411508 0
0 0.000401688 0
0 0.000383954 0
0 0.000358315 0
0 0.000343293 0
0 0.000328148 0
0 0.000294504 0
0 0.000256536 0
0 0.000216555 0
0 0.000176273 0
0 0.000136947 0
0 9.95639e-05 0
0 8.3157e-05 0
0 6.99571e-05 0
0 4.84647e-05 0
0 3.02055e-05 0
0 1.44349e-05 0
0 0 0
1.30878e-05 0 0
1.4517e-05 1.10247e-05 1.25919e-05
1.72005e-05 2.35932e-05 2.67218e-05
2.0745e-05 3.90665e-05 4.38042e-05
2.62094e-05 5.82879e-05 6.491e-05
3.33521e-05 7.05817e-05 7.87385e-05
3.84839e-05 8.63372e-05 9.65691e-05
4.06909e-05 0.000123115 0.000137534
4.17295e-05 0.000161982 0.000181149
4.13318e-05 0.000201828 0.000226345
3.90487e-05 0.00024115 0.00027195
3.4293e-05 0.000277741 0.000316586
3.03846e-05 0.000308146 0.000358659
2.95404e-05 0.00032162 0.000376922
2.45312e-05 0.000336688 0.000391167
1.61532e-05 0.000362464 0.000412496
7.97169e-06 0.000377694 0.000428293
3.75266e-06 0.000382581 0.000439065
-4.90071e-07 0.000383618 0.000441264
-4.58799e-06 0.000382376 0.000439626
-8.52502e-06 0.000380166 0.000435884
-1.61827e-05 0.000373198 0.000422398
-2.38651e-05 0.000356477 0.000404478
-2.81318e-05 0.000329999 0.000381797
-2.82988e-05 0.000314944 0.000367343
-3.15461e-05 0.000301751 0.000349361
-3.57764e-05 0.000272553 0.000308639
-3.77405e-05 0.00023776 0.000265797
-3.80282e-05 0.000200593 0.000222165
-3.70829e-05 0.000163018 0.000178874
-3.51637e-05 0.000126294 0.000136903
-3.06082e-05 9.12502e-05 9.72393e-05
-2.42015e-05 7.5977e-05 7.98003e-05
-1.93014e-05 6.37245e-05 6.59736e-05
-1.60719e-05 4.38225e-05 4.44905e-05
-1.35853e-05 2.70931e-05 2.71015e-05
-1.22508e-05 1.28747e-05 1.27549e-05
0 0 0
2.44556e-05 0 0
2.73076e-05 7.64166e-06 2.37753e-05
3.26704e-05 1.67346e-05 5.07569e-05
3.96672e-05 2.85807e-05 8.40175e-05
5.02648e-05 4.37437e-05 0.000126069
6.41852e-05 5.32568e-05 0.00015428
7.43902e-05 6.48732e-05 0.00019077
7.85162e-05 9.33323e-05 0.000274361
8.04469e-05 0.000123471 0.00036312
7.95182e-05 0.000154467 0.000454855
7.45787e-05 0.000184885 0.000547319
6.37885e-05 0.000212139 0.000637893
5.65917e-05 0.000230254 0.000723575
5.90639e-05 0.000238076 0.000760903
4.99062e-05 0.00025253 0.000789997
3.12992e-05 0.000279024 0.000833678
1.31071e-05 0.000291286 0.000866016
6.32336e-06 0.000289504 0.000888062
-9.916e-07 0.000289458 0.000892534
-8.03777e-06 0.00028856 0.000889226
-1.42977e-05 0.000287747 0.000881637
-3.14367e-05 0.000287952 0.000854107
-4.86354e-05 0.000274665 0.000817529
-5.63826e-05 0.000247923 0.000771233
-5.27363e-05 0.000233605 0.000741773
-5.86821e-05 0.00022596 0.000705033
-6.84064e-05 0.000208665 0.000622092
-7.26957e-05 0.000182847 0.00053518
-7.33833e-05 0.000154251 0.000446744
-7.16126e-05 0.000125281 0.00035888
-6.80487e-05 9.71822e-05 0.000273405
-5.90106e-05 7.04655e-05 0.00019229
-4.65644e-05 5.92933e-05 0.000156493
-3.7055e-05 4.97491e-05 0.000128177
-3.06382e-05 3.37839e-05 8.52612e-05
-2.5631e-05 2.05391e-05 5.13943e-05
-2.2949e-05 9.6453e-06 2.4034e-05
0 0 0
3.23005e-05 0 0
3.64512e-05 2.41783e-06 3.20502e-05
4.42741e-05 5.84461e-06 6.91531e-05
5.4185e-05 1.12023e-05 0.000116578
6.83168e-05 1.81552e-05 0.000179447
8.62467e-05 2.09693e-05 0.000224041
0.000101444 1.84025e-05 0.000281679
0.000107084 2.0497e-05 0.000412599
0.000109806 2.52118e-05 0.000550563
0.000108314 3.14591e-05 0.00069219
0.000100307 3.79492e-05 0.000834422
8.05552e-05 4.26938e-05 0.000973722
7.10798e-05 3.46235e-05 0.00110647
8.69608e-05 2.91771e-05 0.00116474
7.56252e-05 3.90818e-05 0.00120988
4.31392e-05 5.89425e-05 0.00127814
1.12676e-05 6.22918e-05 0.00132888
6.44445e-06 4.87119e-05 0.00136375
-1.4105e-06 4.76724e-05 0.00137071
-8.93028e-06 4.76619e-05 0.00136569
-1.31114e-05 4.86713e-05 0.001354
-4.34349e-05 6.20185e-05 0.00131078
-7.38105e-05 5.87421e-05 0.00125372
-8.32729e-05 3.95064e-05 0.00118178
-6.61769e-05 2.9948e-05 0.00113622
-7.39928e-05 3.53162e-05 0.00107887
-9.21255e-05 4.33381e-05 0.000950291
-9.91463e-05 3.91037e-05 0.000816632
-0.000100222 3.34611e-05 0.000680651
-9.76453e-05 2.84221e-05 0.000545031
-9.27863e-05 2.532e-05 0.000412031
-7.93985e-05 2.50059e-05 0.00028445
-6.36786e-05 2.79421e-05 0.000227512
-5.09875e-05 2.49081e-05 0.0001824
-4.17783e-05 1.70004e-05 0.000118008
-3.438e-05 1.006e-05 6.97623e-05
-3.04333e-05 4.62976e-06 3.22605e-05
0 0 0
3.47525e-05 0 0
3.97131e-05 -6.23212e-06 3.58155e-05
4.90643e-05 -1.26258e-05 7.84685e-05
5.99581e-05 -1.89858e-05 0.000136159
7.21831e-05 -2.49852e-05 0.000219713
7.90053e-05 -2.8836e-05 0.000287576
0.000101166 -9.16408e-05 0.000373105
0.00010933 -0.000189241 0.000564135
0.000113576 -0.000262873 0.000761459
0.000112387 -0.000330902 0.00096101
0.00010277 -0.000394702 0.00115957
7.0424e-05 -0.000445369 0.00135292
5.83561e-05 -0.000444798 0.00153877
0.00010511 -0.00044024 0.0016215
9.41047e-05 -0.000488381 0.0016849
4.55136e-05 -0.000582145 0.00178288
-2.87262e-06 -0.000606609 0.00185628
4.11044e-06 -0.000561935 0.00190736
-1.37455e-06 -0.000556566 0.00191708
-6.5737e-06 -0.000554486 0.00191033
8.59788e-07 -0.000557825 0.0018942
-4.57218e-05 -0.000598417 0.0018318
-9.17169e-05 -0.000571157 0.00175007
-0.00010084 -0.000476673 0.0016477
-5.37603e-05 -0.00042876 0.00158395
-6.41237e-05 -0.000433019 0.00150244
-9.43806e-05 -0.000433961 0.00132209
-0.000102774 -0.000385133 0.00113648
-0.00010331 -0.000323424 0.000946688
-9.89703e-05 -0.000256907 0.000755697
-9.15867e-05 -0.000183217 0.000565365
-7.21194e-05 -8.31504e-05 0.000378055
-6.82331e-05 -1.99109e-05 0.000292031
-5.71218e-05 -1.72422e-05 0.000222502
-4.67223e-05 -1.23503e-05 0.000136919
-3.771e-05 -7.80862e-06 7.85564e-05
-3.29247e-05 -3.71239e-06 3.57616e-05
0 0 0
3.1596e-05 0 0
3.63571e-05 -1.65373e-05 3.31638e-05
4.54725e-05 -3.49912e-05 7.32861e-05
5.61096e-05 -5.64705e-05 0.000129653
6.6922e-05 -7.72599e-05 0.000218821
1.4339e-05 -7.32232e-05 0.000314051
5.05126e-05 -9.16326e-05 0.000424395
7.07162e-05 -0.000130755 0.000670421
7.78069e-05 -0.000172984 0.000913128
7.87928e-05 -0.000216703 0.00115443
7.58363e-05 -0.000260306 0.00139224
6.92461e-05 -0.000302203 0.00162054
6.15895e-05 -0.000340459 0.00182939
5.57469e-05 -0.000357381 0.00192161
4.61638e-05 -0.000372594 0.0020042
3.24589e-05 -0.000397405 0.00213776
1.8879e-05 -0.000414339 0.00222792
9.06906e-06 -0.000423653 0.00227692
-5.72314e-07 -0.000425606 0.00228704
-9.98194e-06 -0.000424224 0.00227926
-1.93384e-05 -0.000420959 0.00226175
-3.1777e-05 -0.000409287 0.00219945
-4.39538e-05 -0.000390668 0.0020998
-5.22719e-05 -0.000365071 0.00196183
-5.72835e-05 -0.000349828 0.00187911
-6.37572e-05 -0.000333109 0.00178809
-6.90551e-05 -0.000295891 0.00158515
-7.10003e-05 -0.000255611 0.00136585
-6.92037e-05 -0.000213923 0.00113852
-6.14565e-05 -0.000172128 0.000907683
-4.12285e-05 -0.0001314 0.000673829
-8.88646e-06 -9.18951e-05 0.000432606
-6.52847e-05 -6.86043e-05 0.00031848
-5.39668e-05 -6.98094e-05 0.000220736
-4.35089e-05 -4.90979e-05 0.000129911
-3.46311e-05 -2.95308e-05 7.31227e-05
-3.00081e-05 -1.36784e-05 3.30049e-05
0 0 0
2.32548e-05 0 0
2.69281e-05 -2.30675e-05 2.43856e-05
3.42483e-05 -4.953e-05 5.3973e-05
4.47142e-05 -8.2702e-05 9.53727e-05
6.91648e-05 -0.000125233 0.000158039
-1.13508e-05 -0.000157981 0.000211225
2.51986e-05 -0.000146262 3.21421e-05
4.4374e-05 -0.000165182 3.56352e-05
5.09292e-05 -0.000205054 4.82739e-05
5.21698e-05 -0.000251952 6.10115e-05
5.03379e-05 -0.000300314 7.35686e-05
4.59488e-05 -0.000347074 8.56225e-05
4.08734e-05 -0.000389747 9.6647e-05
3.7014e-05 -0.000408691 0.000101512
3.06809e-05 -0.000425812 0.000105868
2.15441e-05 -0.00045406 0.000112903
1.24101e-05 -0.00047366 0.000117637
5.77178e-06 -0.000484623 0.000120192
-7.63453e-07 -0.000486969 0.000120709
-7.1442e-06 -0.000485491 0.000120262
-1.34809e-05 -0.00048174 0.000119321
-2.18587e-05 -0.000468256 0.000116003
-2.99904e-05 -0.000446852 0.000110724
-3.54999e-05 -0.000417745 0.000103437
-3.88198e-05 -0.000400577 9.90743e-05
-4.31311e-05 -0.00038183 9.42781e-05
-4.67032e-05 -0.000340234 8.35936e-05
-4.79424e-05 -0.000295212 7.20559e-05
-4.63243e-05 -0.000248942 6.00998e-05
-3.9689e-05 -0.000204082 4.79612e-05
-2.12896e-05 -0.000165352 3.58262e-05
1.25236e-05 -0.000144027 3.25677e-05
-6.66848e-05 -0.000149646 0.000210866
-4.30107e-05 -0.000116418 0.000158635
-3.28137e-05 -7.46388e-05 9.54919e-05
-2.5685e-05 -4.36408e-05 5.3854e-05
-2.21136e-05 -1.99969e-05 2.42723e-05
0 0 0
-2.71383e-08 0 0
-3.14712e-08 -2.30665e-05 -2.06104e-08
-4.35642e-08 -4.95281e-05 -4.10907e-08
-7.34377e-08 -8.27002e-05 -6.00636e-08
-1.55338e-07 -0.000125235 -7.21003e-08
1.34606e-08 -0.000157986 -6.52937e-08
1.99004e-08 -0.000146267 -3.9728e-09
2.58113e-08 -0.000165187 -1.84241e-10
3.06676e-08 -0.000205059 -8.40149e-11
3.41463e-08 -0.000251956 -5.71734e-11
3.61247e-08 -0.000300316 -3.17127e-11
3.66653e-08 -0.000347075 -8.08204e-12
3.61718e-08 -0.000389747 1.23647e-11
3.55662e-08 -0.00040869 2.04645e-11
3.43406e-08 -0.00042581 2.75523e-11
3.20379e-08 -0.000454058 3.81151e-11
2.93137e-08 -0.000473658 4.43327e-11
2.7096e-08 -0.00048462 4.6843e-11
2.48373e-08 -0.000486966 4.70987e-11
2.25776e-08 -0.000485488 4.59064e-11
2.03558e-08 -0.000481738 4.48518e-11
1.76095e-08 -0.000468253 4.22402e-11
1.50707e-08 -0.000446849 3.84469e-11
1.32912e-08 -0.000417743 3.37672e-11
1.21124e-08 -0.000400574 3.09535e-11
1.04952e-08 -0.000381828 2.92821e-11
8.63887e-09 -0.000340232 2.54241e-11
7.00014e-09 -0.000295211 2.18392e-11
5.5352e-09 -0.000248941 1.87821e-11
4.18639e-09 -0.000204081 1.63147e-11
2.92171e-09 -0.000165351 2.23219e-11
1.71411e-09 -0.000144026 3.80926e-10
-1.9615e-07 -0.000149645 5.90767e-09
-8.07741e-08 -0.000116414 2.49251e-08
-3.93926e-08 -7.46389e-05 2.6783e-08
-2.27847e-08 -4.36413e-05 1.93011e-08
-1.68594e-08 -1.99972e-05 9.7597e-09
0 0 0
-2.3308e-05 0 0
-2.69901e-05 -1.65326e-05 -2.44257e-05
-3.43353e-05 -3.49806e-05 -5.40527e-05
-4.4865e-05 -5.64512e-05 -9.54884e-05
-6.94815e-05 -7.72327e-05 -0.000158175
1.13747e-05 -7.32302e-05 -0.000211348
-2.51602e-05 -9.16452e-05 -3.21549e-05
-4.43224e-05 -0.000130768 -3.56404e-05
-5.08673e-05 -0.000172994 -4.82779e-05
-5.21008e-05 -0.00021671 -6.10143e-05
-5.02649e-05 -0.00026031 -7.35701e-05
-4.58749e-05 -0.000302204 -8.56229e-05
-4.08006e-05 -0.000340457 -9.66464e-05
-3.69425e-05 -0.000357378 -0.000101511
-3.0612e-05 -0.000372591 -0.000105867
-2.148e-05 -0.0003974 -0.000112901
-1.23516e-05 -0.000414334 -0.000117635
-5.71776e-06 -0.000423647 -0.00012019
8.12895e-07 -0.000425599 -0.000120707
7.1891e-06 -0.000424218 -0.00012026
1.35214e-05 -0.000420953 -0.000119319
2.18937e-05 -0.000409282 -0.000116001
3.00202e-05 -0.000390663 -0.000110722
3.55263e-05 -0.000365066 -0.000103435
3.88437e-05 -0.000349824 -9.90728e-05
4.31518e-05 -0.000333105 -9.42766e-05
4.67202e-05 -0.000295888 -8.35923e-05
4.79563e-05 -0.000255608 -7.20548e-05
4.63353e-05 -0.00021392 -6.00989e-05
3.96973e-05 -0.000172125 -4.79604e-05
2.12955e-05 -0.000131398 -3.58254e-05
-1.252e-05 -9.18928e-05 -3.25664e-05
6.62974e-05 -6.86013e-05 -0.000210855
4.28454e-05 -6.98375e-05 -0.000158588
3.27344e-05 -4.9115e-05 -9.544e-05
2.56396e-05 -2.95389e-05 -5.38163e-05
2.20802e-05 -1.36816e-05 -2.42532e-05
0 0 0
-3.16467e-05 0 0
-3.6416e-05 -6.22258e-06 -3.3202e-05
-4.5555e-05 -1.26023e-05 -7.3362e-05
-5.62565e-05 -1.89324e-05 -0.000129763
-6.72734e-05 -2.48395e-05 -0.000218949
-1.43235e-05 -2.84798e-05 -0.000314164
-5.04763e-05 -9.13149e-05 -0.000424499
-7.06651e-05 -0.000188937 -0.000670508
-7.77451e-05 -0.000262605 -0.000913195
-7.87238e-05 -0.000330678 -0.00115448
-7.57633e-05 -0.000394527 -0.00139227
-6.91722e-05 -0.000445247 -0.00162054
-6.15168e-05 -0.000444734 -0.00182938
-5.56756e-05 -0.000440203 -0.00192159
-4.60952e-05 -0.000488368 -0.00200418
-3.23952e-05 -0.000582184 -0.00213773
-1.88209e-05 -0.000606696 -0.00222788
-9.01549e-06 -0.000562061 -0.00227688
6.21301e-07 -0.000556711 -0.002287
1.00264e-05 -0.000554668 -0.00227922
1.93784e-05 -0.000558026 -0.00226171
3.18116e-05 -0.000598663 -0.00219942
4.39834e-05 -0.000571431 -0.00209977
5.2298e-05 -0.000476953 -0.0019618
5.7307e-05 -0.000429042 -0.00187909
6.37775e-05 -0.00043332 -0.00178807
6.90719e-05 -0.000434301 -0.00158513
7.10139e-05 -0.000385493 -0.00136583
6.92145e-05 -0.000323798 -0.00113851
6.14647e-05 -0.00025729 -0.00090767
4.12344e-05 -0.000183607 -0.000673817
8.89065e-06 -8.35383e-05 -0.000432595
6.48661e-05 -2.03298e-05 -0.00031847
5.3807e-05 -1.74067e-05 -0.00022069
4.34341e-05 -1.24042e-05 -0.000129861
3.45882e-05 -7.82933e-06 -7.30866e-05
2.99763e-05 -3.72001e-06 -3.29866e-05
0 0 0
-3.47983e-05 0 0
-3.97649e-05 2.42917e-06 -3.58504e-05
-4.91317e-05 5.87069e-06 -7.85379e-05
-6.00587e-05 1.1253e-05 -0.000136259
-7.23243e-05 1.82552e-05 -0.000219835
-7.90206e-05 2.11145e-05 -0.000287698
-0.000101141 1.85494e-05 -0.000373224
-0.000109297 2.06285e-05 -0.000564242
-0.000113537 2.53262e-05 -0.000761547
-0.000112343 3.15536e-05 -0.000961076
-0.000102724 3.80218e-05 -0.00115961
-7.03793e-05 4.27432e-05 -0.00135294
-5.83109e-05 3.46503e-05 -0.00153877
-0.000105064 2.91924e-05 -0.00162149
-9.40617e-05 3.9085e-05 -0.00168489
-4.54741e-05 5.89233e-05 -0.00178284
2.91123e-06 6.22519e-05 -0.00185624
-4.07653e-06 4.86516e-05 -0.00190731
1.40457e-06 4.76029e-05 -0.00191703
6.59909e-06 4.7576e-05 -0.00191027
-8.41978e-07 4.85781e-05 -0.00189415
4.57425e-05 6.19147e-05 -0.00183174
9.17433e-05 5.86269e-05 -0.00175001
0.000100865 3.93775e-05 -0.00164765
5.37644e-05 2.98124e-05 -0.00158389
6.41245e-05 3.51788e-05 -0.00150239
9.43874e-05 4.31981e-05 -0.00132204
0.000102781 3.89582e-05 -0.00113642
0.000103316 3.33108e-05 -0.000946634
9.89753e-05 2.82678e-05 -0.000755644
9.15937e-05 2.51619e-05 -0.000565313
7.20926e-05 2.48414e-05 -0.000378008
6.8069e-05 2.77825e-05 -0.000291985
5.70174e-05 2.48037e-05 -0.00022245
4.66641e-05 1.69532e-05 -0.000136871
3.76736e-05 1.00385e-05 -7.8523e-05
3.28967e-05 4.62119e-06 -3.57448e-05
0 0 0
-3.23344e-05 0 0
-3.64876e-05 7.65263e-06 -3.20769e-05
-4.43162e-05 1.67582e-05 -6.92059e-05
-5.42359e-05 2.86209e-05 -0.000116655
-6.83671e-05 4.38078e-05 -0.000179543
-8.62585e-05 5.33346e-05 -0.000224142
-0.000101434 6.4953e-05 -0.00028178
-0.000107069 9.34047e-05 -0.000412691
-0.000109786 0.000123534 -0.00055064
-0.000108291 0.000154518 -0.000692249
-0.000100284 0.000184923 -0.000834461
-8.05323e-05 0.000212164 -0.000973741
-7.1057e-05 0.000230265 -0.00110647
-8.69378e-05 0.000238081 -0.00116473
-7.56041e-05 0.000252529 -0.00120987
-4.312e-05 0.00027901 -0.00127811
-1.12491e-05 0.000291261 -0.00132885
-6.42846e-06 0.000289469 -0.00136371
1.42418e-06 0.000289418 -0.00137066
8.94125e-06 0.000288512 -0.00136564
1.31187e-05 0.000287696 -0.00135395
4.34443e-05 0.000287897 -0.00131073
7.38232e-05 0.000274605 -0.00125366
8.3284e-05 0.000247855 -0.00118173
6.61775e-05 0.000233534 -0.00113616
7.3991e-05 0.000225889 -0.00107882
9.21269e-05 0.000208594 -0.000950233
9.91484e-05 0.000182775 -0.000816574
0.000100223 0.000154177 -0.000680593
9.76465e-05 0.000125205 -0.000544974
9.27869e-05 9.71048e-05 -0.000411975
7.93817e-05 7.03866e-05 -0.000284397
6.36248e-05 5.92187e-05 -0.000227462
5.09402e-05 4.9691e-05 -0.000182352
4.17458e-05 3.37514e-05 -0.00011797
3.43565e-05 2.0522e-05 -6.97367e-05
3.04139e-05 9.63792e-06 -3.22477e-05
0 0 0
-2.44778e-05 0 0
-2.73307e-05 1.10351e-05 -2.37931e-05
-3.2695e-05 2.36145e-05 -5.07921e-05
-3.96932e-05 3.90999e-05 -8.40688e-05
-5.02865e-05 5.83348e-05 -0.000126133
-6.41919e-05 7.06343e-05 -0.000154348
-7.43865e-05 8.63907e-05 -0.000190838
-7.85086e-05 0.000123164 -0.000274424
-8.04366e-05 0.000162024 -0.000363173
-7.95063e-05 0.000201862 -0.000454896
-7.45663e-05 0.000241174 -0.000547347
-6.37766e-05 0.000277756 -0.000637906
-5.65801e-05 0.000308151 -0.000723576
-5.90524e-05 0.00032162 -0.000760898
-4.98959e-05 0.000336684 -0.000789988
-3.12899e-05 0.000362452 -0.00083366
-1.30983e-05 0.000377675 -0.000865992
-6.31589e-06 0.000382555 -0.000888032
9.97825e-07 0.00038359 -0.000892502
8.0426e-06 0.000382344 -0.000889191
1.43009e-05 0.000380131 -0.000881601
3.14409e-05 0.000373162 -0.000854069
4.86412e-05 0.000356438 -0.000817489
5.63874e-05 0.000329956 -0.000771192
5.27362e-05 0.000314899 -0.000741732
5.86806e-05 0.000301707 -0.000704991
6.84063e-05 0.000272509 -0.00062205
7.26961e-05 0.000237716 -0.000535138
7.33836e-05 0.000200547 -0.000446702
7.16124e-05 0.000162973 -0.000358839
6.80478e-05 0.000126248 -0.000273365
5.90023e-05 9.12048e-05 -0.000192252
4.65435e-05 7.5934e-05 -0.000156456
3.70334e-05 6.36881e-05 -0.000128144
3.0621e-05 4.3799e-05 -8.52355e-05
2.56172e-05 2.70793e-05 -5.13772e-05
2.29369e-05 1.28684e-05 -2.40255e-05
0 0 0
-1.30988e-05 0 0
-1.45282e-05 1.26766e-05 -1.26008e-05
-1.72119e-05 2.6888e-05 -2.67393e-05
-2.07563e-05 4.3977e-05 -4.38296e-05
-2.62182e-05 6.48611e-05 -6.49421e-05
-3.33551e-05 7.81327e-05 -7.87725e-05
-3.84827e-05 9.50356e-05 -9.66033e-05
-4.06878e-05 0.000134142 -0.000137566
-4.17251e-05 0.000175619 -0.000181176
-4.13266e-05 0.000218225 -0.000226366
-3.90433e-05 0.000260448 -0.000271963
-3.42878e-05 0.000300323 -0.000316593
-3.03796e-05 0.000335302 -0.000358659
-2.95356e-05 0.00035076 -0.00037692
-2.45269e-05 0.000365735 -0.000391163
-1.61494e-05 0.000390479 -0.000412487
-7.96814e-06 0.000406547 -0.000428281
-3.74968e-06 0.000414117 -0.00043905
4.9251e-07 0.000415675 -0.000441248
4.58985e-06 0.000414317 -0.000439608
8.52625e-06 0.00041148 -0.000435865
1.61844e-05 0.000401658 -0.000422378
2.38674e-05 0.000383922 -0.000404457
2.81336e-05 0.000358281 -0.000381776
2.82987e-05 0.000343258 -0.000367322
3.15453e-05 0.000328112 -0.00034934
3.57762e-05 0.000294469 -0.000308617
3.77405e-05 0.000256502 -0.000265776
3.80282e-05 0.00021652 -0.000222144
3.70826e-05 0.000176238 -0.000178852
3.5163e-05 0.000136913 -0.000136882
3.06048e-05 9.95302e-05 -9.72198e-05
2.41938e-05 8.31251e-05 -7.97818e-05
1.92927e-05 6.9929e-05 -6.59567e-05
1.60645e-05 4.84452e-05 -4.44777e-05
1.3579e-05 3.01934e-05 -2.7093e-05
1.2245e-05 1.44292e-05 -1.27507e-05
0 0 0
0 0 0
0 0 0
0 0 0
0 0 0
0 0 0
0 0 0
0 0 0
0 0 0
0 0 0
0 0 0
0 0 0
0 0 0
0 0 0
0 0 0
0 0 0
0 0 0
0 0 0
0 0 0
0 0 0
0 0 0
0 0 0
0 0 0
0 0 0
0 0 0
0 0 0
0 0 0
0 0 0
0 0 0
0 0 0
0 0 0
0 0 0
0 0 0
0 0 0
0 0 0
0 0 0
0 0 0
0 0 0
0 0 0
0 0 0
0 4.66443e-05 0
0 9.9553e-05 0
0 0.000164401 0
0 0.000245349 0
0 0.000298003 0
0 0.000365337 0
0 0.000520397 0
0 0.000685585 0
0 0.000856345 0
0 0.00102769 0
0 0.00119368 0
0 0.00134723 0
0 0.00141422 0
0 0.00146975 0
0 0.00155563 0
0 0.00161681 0
0 0.0016548 0
0 0.00166259 0
0 0.00165667 0
0 0.00164331 0
0 0.0015956 0
0 0.00152709 0
0 0.00143706 0
0 0.00138126 0
0 0.00131576 0
0 0.0011683 0
0 0.00101059 0
0 0.000848721 0
0 0.00068765 0
0 0.000531386 0
0 0.000383541 0
0 0.000318327 0
0 0.000265945 0
0 0.000182434 0
0 0.000112847 0
0 5.36804e-05 0
0 0 0
4.90856e-05 0 0
5.49595e-05 4.09028e-05 1.23905e-05
6.61828e-05 8.84469e-05 2.65436e-05
8.1366e-05 0.000149035 4.40809e-05
0.000105004 0.000227874 6.62063e-05
0.000133901 0.000281149 8.07997e-05
0.000153653 0.000349732 9.95597e-05
0.00016314 0.000507309 0.00014301
0.000168334 0.000674232 0.000190517
0.000168819 0.000845956 0.000241407
0.000163662 0.00101782 0.000294798
0.000151714 0.00118405 0.000349402
0.000132716 0.00133717 0.000403486
0.000110226 0.00140433 0.000426136
8.57878e-05 0.00146157 0.000439765
6.22037e-05 0.00155122 0.000455065
4.01655e-05 0.00161354 0.00046678
1.86145e-05 0.00165017 0.000477
-2.05833e-06 0.00165763 0.000478639
-2.2074e-05 0.00165174 0.000476066
-4.23404e-05 0.00163872 0.000472012
-6.22476e-05 0.00159236 0.000457597
-8.3017e-05 0.00152287 0.000442483
-0.000104132 0.00142945 0.000424832
-0.000123256 0.00137209 0.000410862
-0.000139363 0.00130641 0.000388917
-0.00014933 0.00115927 0.000337525
-0.000153336 0.00100131 0.000286002
-0.000152513 0.000838989 0.000235715
-0.000147753 0.000677126 0.00018764
-0.000139425 0.00051941 0.000142451
-0.000122088 0.000369365 0.000100777
-9.64751e-05 0.000302977 8.25352e-05
-7.52976e-05 0.000249895 6.78848e-05
-6.14572e-05 0.000168179 4.51212e-05
-5.1096e-05 0.000102483 2.71055e-05
-4.56407e-05 4.83081e-05 1.26288e-05
0 0 0
9.21385e-05 0 0
0.000104209 2.90954e-05 2.33748e-05
0.000127659 6.52083e-05 5.04355e-05
0.00016004 0.000116199 8.47105e-05
0.000210569 0.000190437 0.000128996
0.000269565 0.00024657 0.000158862
0.000309025 0.000318214 0.000197397
0.000327193 0.000481026 0.000286704
0.000336813 0.000650564 0.000384483
0.000337353 0.000822607 0.000489544
0.000326773 0.000993442 0.000600485
0.000302247 0.00115787 0.00071501
0.000265058 0.00130802 0.000829322
0.000223211 0.00137455 0.000877583
0.000174726 0.0014344 0.000907233
0.000124998 0.00153072 0.000940477
7.84921e-05 0.00159506 0.000964859
3.61295e-05 0.00162913 0.000985369
-4.49284e-06 0.00163606 0.000988502
-4.38249e-05 0.00163039 0.000983021
-8.36503e-05 0.00161809 0.000974735
-0.000125737 0.00157452 0.000945252
-0.000169618 0.00150352 0.000913697
-0.00021151 0.00140431 0.000875687
-0.000246968 0.00134466 0.000845471
-0.000278472 0.00127951 0.000798808
-0.000298943 0.00113487 0.000690342
-0.000307139 0.000978421 0.00058245
-0.000305826 0.000817051 0.000478113
-0.000296969 0.000655055 0.000378977
-0.000281062 0.000495245 0.000285962
-0.000246533 0.000340731 0.000200097
-0.000194362 0.000271525 0.000162475
-0.000148808 0.000215344 0.000132338
-0.000119028 0.00013751 8.66123e-05