<?xml version="1.0"?>
<VTKFile type="RectilinearGrid" version="0.1" byte_order="LittleEndian">
<RectilinearGrid WholeExtent="0 37 0 14 0 34">
<Piece Extent="0 37 0 14 0 34">
<PointData>
<DataArray type="Float32" Name="MVP" NumberOfComponents="3" format="ascii">
0 0 0
0 0 0
0 0 0
0 0 0
0 0 0
0 0 0
0 0 0
0 0 0
0 0 0
0 0 0
0 0 0
0 0 0
0 0 0
0 0 0
0 0 0
0 0 0
0 0 0
0 0 0
0 0 0
0 0 0
0 0 0
0 0 0
0 0 0
0 0 0
0 0 0
0 0 0
0 0 0
0 0 0
0 0 0
0 0 0
0 0 0
0 0 0
0 0 0
0 0 0
0 0 0
0 0 0
0 0 0
0 0 0
0 0 0
0 0 3.36032e-06
0 0 7.36286e-06
0 0 1.27384e-05
0 0 2.03613e-05
0 0 2.57468e-05
0 0 3.28942e-05
0 0 5.17646e-05
0 0 7.48104e-05
0 0 0.000100487
0 0 0.000127038
0 0 0.000153118
0 0 0.000178099
0 0 0.000188961
0 0 0.000196933
0 0 0.000209346
0 0 0.000220343
0 0 0.000229993
0 0 0.000232951
0 0 0.000235217
0 0 0.000234405
0 0 0.000228573
0 0 0.000220515
0 0 0.000209881
0 0 0.000202194
0 0 0.000191077
0 0 0.000164547
0 0 0.00013617
0 0 0.000106965
0 0 7.86423e-05
0 0 5.32404e-05
0 0 3.24589e-05
0 0 2.47155e-05
0 0 1.92414e-05
0 0 1.19918e-05
0 0 6.95384e-06
0 0 3.1891e-06
0 0 0
0 0 0
0 0 6.52391e-06
0 0 1.45241e-05
0 0 2.57645e-05
0 0 4.23968e-05
0 0 5.40538e-05
0 0 6.82838e-05
0 0 0.000106442
0 0 0.000154253
0 0 0.000207759
0 0 0.000262961
0 0 0.000317151
0 0 0.000369582
0 0 0.000392427
0 0 0.000408601
0 0 0.00043355
0 0 0.000456225
0 0 0.00047671
0 0 0.000482785
0 0 0.000487098
0 0 0.000485113
0 0 0.000471942
0 0 0.000454809
0 0 0.000433048
0 0 0.000417324
0 0 0.000394013
0 0 0.000338698
0 0 0.000280095
0 0 0.000219759
0 0 0.000161138
0 0 0.000108828
0 0 6.71395e-05
0 0 5.18754e-05
0 0 4.01811e-05
0 0 2.44297e-05
0 0 1.38602e-05
0 0 6.26805e-06
0 0 0
0 0 0
0 0 9.31868e-06
0 0 2.14788e-05
0 0 4.03403e-05
0 0 7.13281e-05
0 0 9.37844e-05
0 0 0.000115064
0 0 0.000173863
0 0 0.000251137
0 0 0.0003379
0 0 0.000426839
0 0 0.000513932
0 0 0.00059979
0 0 0.000637514
0 0 0.0006626
0 0 0.000700834
0 0 0.000737036
0 0 0.000771197
0 0 0.000780635
0 0 0.000786335
0 0 0.000782326
0 0 0.000757992
0 0 0.000729025
0 0 0.000694498
0 0 0.000669765
0 0 0.000631518
0 0 0.000542065
0 0 0.000449026
0 0 0.000353049
0 0 0.000259251
0 0 0.000175891
0 0 0.000112653
0 0 9.03257e-05
0 0 6.82332e-05
0 0 3.88401e-05
0 0 2.09023e-05
0 0 9.15517e-06
0 0 0
0 0 0
0 0 1.14426e-05
0 0 2.80511e-05
0 0 5.85411e-05
0 0 0.000120018
0 0 0.000175105
0 0 0.000202774
0 0 0.000286384
0 0 0.000404611
0 0 0.000536656
0 0 0.000670321
0 0 0.000800031
0 0 0.00093059
0 0 0.000989316
0 0 0.00102599
0 0 0.0010824
0 0 0.00113669
0 0 0.00118892
0 0 0.00120147
0 0 0.00120686
0 0 0.00119948
0 0 0.00115699
0 0 0.0011095
0 0 0.00105562
0 0 0.00101876
0 0 0.000959867
0 0 0.000826458
0 0 0.000690837
0 0 0.000549922
0 0 0.000410463
0 0 0.000285807
0 0 0.000198166
0 0 0.000170516
0 0 0.000116911
0 0 5.77222e-05
0 0 2.80912e-05
0 0 1.16113e-05
0 0 0
0 0 0
0 0 1.13252e-05
0 0 2.90153e-05
0 0 6.58538e-05
0 0 0.000156464
0 0 0.000287305
0 0 0.000308635
0 0 0.000420082
0 0 0.000576358
0 0 0.00074764
0 0 0.000918997
0 0 0.00108157
0 0 0.00122807
0 0 0.00129285
0 0 0.00135141
0 0 0.00144868
0 0 0.00151848
0 0 0.00156126
0 0 0.00157274
0 0 0.00157595
0 0 0.00156751
0 0 0.00153021
0 0 0.00146433
0 0 0.00136894
0 0 0.00131049
0 0 0.00124528
0 0 0.00109648
0 0 0.00093016
0 0 0.000754161
0 0 0.000577805
0 0 0.000416518
0 0 0.000301476
0 0 0.000281963
0 0 0.000153829
0 0 6.54839e-05
0 0 2.93183e-05
0 0 1.16097e-05
0 0 0
0 0 0
0 0 8.81122e-06
0 0 2.32415e-05
0 0 5.54343e-05
0 0 0.000140232
0 0 0.000274511
0 0 0.000313033
0 0 0.000423035
0 0 0.000572512
0 0 0.000736054
0 0 0.000899941
0 0 0.00105593
0 0 0.00119695
0 0 0.00125939
0 0 0.00131583
0 0 0.00140946
0 0 0.00147625
0 0 0.00151665
0 0 0.00152721
0 0 0.00152915
0 0 0.00152044
0 0 0.00148335
0 0 0.00141894
0 0 0.00132647
0 0 0.00127012
0 0 0.00120745
0 0 0.00106508
0 0 0.000906868
0 0 0.000740191
0 0 0.000573613
0 0 0.000421312
0 0 0.000310035
0 0 0.000273251
0 0 0.000138983
0 0 5.52642e-05
0 0 2.34814e-05
0 0 9.0248e-06
0 0 0
0 0 0
0 0 2.45428e-08
0 0 5.04941e-08
0 0 8.02165e-08
0 0 1.1871e-07
0 0 1.48952e-07
0 0 1.3876e-07
0 0 1.15702e-07
0 0 8.88267e-08
0 0 5.8058e-08
0 0 2.50484e-08
0 0 -8.34133e-09
0 0 -4.0313e-08
0 0 -5.49852e-08
0 0 -6.85289e-08
0 0 -9.2229e-08
0 0 -1.11129e-07
0 0 -1.24901e-07
0 0 -1.29815e-07
0 0 -1.35802e-07
0 0 -1.37064e-07
0 0 -1.36337e-07
0 0 -1.31556e-07
0 0 -1.23453e-07
0 0 -1.18773e-07
0 0 -1.14109e-07
0 0 -1.04208e-07
0 0 -9.3233e-08
0 0 -8.17604e-08
0 0 -7.04393e-08
0 0 -6.00832e-08
0 0 -5.20878e-08
0 0 -5.01419e-08
0 0 -3.42286e-08
0 0 -2.03077e-08
0 0 -1.18455e-08
0 0 -5.52718e-09
0 0 0
0 0 0
0 0 -8.76345e-06
0 0 -2.31432e-05
0 0 -5.52776e-05
0 0 -0.000139997
0 0 -0.000274211
0 0 -0.000312749
0 0 -0.000422796
0 0 -0.000572329
0 0 -0.000735934
0 0 -0.000899889
0 0 -0.00105594
0 0 -0.00119703
0 0 -0.0012595
0 0 -0.00131597
0 0 -0.00140965
0 0 -0.00147648
0 0 -0.0015169
0 0 -0.00152747
0 0 -0.00152943
0 0 -0.00152072
0 0 -0.00148363
0 0 -0.00141921
0 0 -0.00132672
0 0 -0.00127036
0 0 -0.00120768
0 0 -0.00106529
0 0 -0.000907056
0 0 -0.000740356
0 0 -0.000573754
0 0 -0.000421432
0 0 -0.000310133
0 0 -0.000273341
0 0 -0.000139047
0 0 -5.53033e-05
0 0 -2.35045e-05
0 0 -9.03559e-06
0 0 0
0 0 0
0 0 -1.12797e-05
0 0 -2.8922e-05
0 0 -6.57053e-05
0 0 -0.00015624
0 0 -0.000287009
0 0 -0.000308344
0 0 -0.000419833
0 0 -0.000576167
0 0 -0.000747516
0 0 -0.000918944
0 0 -0.00108159
0 0 -0.00122816
0 0 -0.00129297
0 0 -0.00135156
0 0 -0.00144887
0 0 -0.00151871
0 0 -0.00156152
0 0 -0.00157302
0 0 -0.00157623
0 0 -0.0015678
0 0 -0.00153049
0 0 -0.0014646
0 0 -0.00136919
0 0 -0.00131073
0 0 -0.00124552
0 0 -0.00109669
0 0 -0.000930349
0 0 -0.000754326
0 0 -0.000577947
0 0 -0.000416637
0 0 -0.000301568
0 0 -0.000282033
0 0 -0.000153885
0 0 -6.552e-05
0 0 -2.934e-05
0 0 -1.162e-05
0 0 0
0 0 0
0 0 -1.14012e-05
0 0 -2.79669e-05
0 0 -5.84101e-05
0 0 -0.000119832
0 0 -0.000174888
0 0 -0.000202557
0 0 -0.000286198
0 0 -0.000404467
0 0 -0.000536561
0 0 -0.000670278
0 0 -0.000800041
0 0 -0.000930652
0 0 -0.000989402
0 0 -0.00102609
0 0 -0.00108254
0 0 -0.00113685
0 0 -0.00118911
0 0 -0.00120166
0 0 -0.00120706
0 0 -0.00119968
0 0 -0.00115718
0 0 -0.00110968
0 0 -0.0010558
0 0 -0.00101894
0 0 -0.000960032
0 0 -0.000826605
0 0 -0.000690969
0 0 -0.000550037
0 0 -0.000410563
0 0 -0.000285891
0 0 -0.000198234
0 0 -0.000170574
0 0 -0.000116959
0 0 -5.7754e-05
0 0 -2.81107e-05
0 0 -1.16206e-05
0 0 0
0 0 0
0 0 -9.2875e-06
0 0 -2.14163e-05
0 0 -4.02462e-05
0 0 -7.1203e-05
0 0 -9.36474e-05
0 0 -0.000114927
0 0 -0.000173744
0 0 -0.000251044
0 0 -0.000337838
0 0 -0.00042681
0 0 -0.000513937
0 0 -0.000599827
0 0 -0.000637565
0 0 -0.000662663
0 0 -0.000700916
0 0 -0.000737133
0 0 -0.000771308
0 0 -0.000780749
0 0 -0.000786453
0 0 -0.000782445
0 0 -0.000758106
0 0 -0.000729134
0 0 -0.000694604
0 0 -0.000669868
0 0 -0.000631616
0 0 -0.000542152
0 0 -0.000449104
0 0 -0.000353118
0 0 -0.000259311
0 0 -0.000175943
0 0 -0.000112696
0 0 -9.03639e-05
0 0 -6.82659e-05
0 0 -3.8863e-05
0 0 -2.09167e-05
0 0 -9.16214e-06
0 0 0
0 0 0
0 0 -6.50326e-06
0 0 -1.44831e-05
0 0 -2.57041e-05
0 0 -4.23192e-05
0 0 -5.39708e-05
0 0 -6.82012e-05
0 0 -0.000106369
0 0 -0.000154196
0 0 -0.000207721
0 0 -0.000262943
0 0 -0.000317154
0 0 -0.000369604
0 0 -0.000392457
0 0 -0.000408638
0 0 -0.000433599
0 0 -0.000456282
0 0 -0.000476774
0 0 -0.000482851
0 0 -0.000487167
0 0 -0.000485182
0 0 -0.000472008
0 0 -0.000454872
0 0 -0.000433109
0 0 -0.000417384
0 0 -0.00039407
0 0 -0.000338749
0 0 -0.00028014
0 0 -0.000219799
0 0 -0.000161173
0 0 -0.000108859
0 0 -6.71656e-05
0 0 -5.18989e-05
0 0 -4.02016e-05
0 0 -2.44444e-05
0 0 -1.38696e-05
0 0 -6.27265e-06
0 0 0
0 0 0
0 0 -3.35007e-06
0 0 -7.34263e-06
0 0 -1.27089e-05
0 0 -2.03241e-05
0 0 -2.57073e-05
0 0 -3.2855e-05
0 0 -5.17301e-05
0 0 -7.47832e-05
0 0 -0.000100468
0 0 -0.000127029
0 0 -0.000153119
0 0 -0.000178109
0 0 -0.000188975
0 0 -0.000196951
0 0 -0.000209369
0 0 -0.000220369
0 0 -0.000230023
0 0 -0.000232982
0 0 -0.000235249
0 0 -0.000234436
0 0 -0.000228604
0 0 -0.000220545
0 0 -0.00020991
0 0 -0.000202221
0 0 -0.000191103
0 0 -0.000164571
0 0 -0.000136191
0 0 -0.000106984
0 0 -7.86589e-05
0 0 -5.32549e-05
0 0 -3.24712e-05
0 0 -2.47267e-05
0 0 -1.92513e-05
0 0 -1.1999e-05
0 0 -6.95849e-06
0 0 -3.19138e-06
0 0 0
0 0 0
0 0 0
0 0 0
0 0 0
0 0 0
0 0 0
0 0 0
0 0 0
0 0 0
0 0 0
0 0 0
0 0 0
0 0 0
0 0 0
0 0 0
0 0 0
0 0 0
0 0 0
0 0 0
0 0 0
0 0 0
0 0 0
0 0 0
0 0 0
0 0 0
0 0 0
0 0 0
0 0 0
0 0 0
0 0 0
0 0 0
0 0 0
0 0 0
0 0 0
0 0 0
0 0 0
0 0 0
0 0 0
0 0 0
0 2.82311e-06 0
0 5.93482e-06 0
0 9.75369e-06 0
0 1.4943e-05 0
0 1.87725e-05 0
0 2.41563e-05 0
0 3.89679e-05 0
0 5.75607e-05 0
0 7.86608e-05 0
0 0.000100723 0
0 0.000122576 0
0 0.000143746 0
0 0.000152909 0
0 0.000159336 0
0 0.000169151 0
0 0.000178279 0
0 0.000186823 0
0 0.000189513 0
0 0.00019181 0
0 0.000191285 0
0 0.000186559 0
0 0.000180258 0
0 0.00017196 0
0 0.000165619 0
0 0.000155951 0
0 0.00013258 0
0 0.00010756 0
0 8.17605e-05 0
0 5.67646e-05 0
0 3.45319e-05 0
0 1.67651e-05 0
0 1.05096e-05 0
0 6.52576e-06 0
0 2.3055e-06 0
0 4.12317e-07 0
0 -1.08465e-07 0
0 0 0
2.02638e-06 0 0
2.49046e-06 2.8045e-06 2.79884e-06
3.52153e-06 6.07509e-06 5.8865e-06
5.31114e-06 1.04993e-05 9.54293e-06
8.11083e-06 1.70817e-05 1.41206e-05
1.14301e-05 2.17416e-05 1.7637e-05
1.57634e-05 2.69746e-05 2.39488e-05
1.98243e-05 4.19949e-05 4.28309e-05
2.24893e-05 6.21585e-05 6.56564e-05
2.34826e-05 8.53279e-05 9.08315e-05
2.31755e-05 0.000109444 0.000116433
2.22702e-05 0.000133299 0.000140744
1.91727e-05 0.000156915 0.000162456
1.35059e-05 0.000167192 0.000171763
1.01466e-05 0.000173841 0.000179644
8.96827e-06 0.000183771 0.000192405
7.86446e-06 0.000193577 0.000202452
4.31119e-06 0.000203304 0.000210053
8.42579e-07 0.000206154 0.000212684
-2.87067e-06 0.000208235 0.000215538
-6.9003e-06 0.000207354 0.000215597
-8.90264e-06 0.00020113 0.000212731
-1.12758e-05 0.000193834 0.000206395
-1.58924e-05 0.00018508 0.000196011
-2.26816e-05 0.000178415 0.000188513
-2.6894e-05 0.000167699 0.000178746
-2.86986e-05 0.000142142 0.00015477
-2.95577e-05 0.000115347 0.000127438
-2.87738e-05 8.76868e-05 9.85076e-05
-2.5987e-05 6.07517e-05 7.01045e-05
-2.14786e-05 3.69914e-05 4.44578e-05
-1.61956e-05 1.90028e-05 2.32922e-05
-1.16376e-05 1.29147e-05 1.62613e-05
-7.87461e-06 8.13835e-06 1.26849e-05
-5.53702e-06 2.62572e-06 8.64184e-06
-4.15815e-06 2.59161e-07 5.40894e-06
-3.52535e-06 -2.75789e-07 2.6024e-06
0 0 0
4.1645e-06 0 0
5.29706e-06 2.77938e-06 5.12808e-06
7.85999e-06 6.54591e-06 1.07003e-05
1.23051e-05 1.29957e-05 1.70153e-05
1.82342e-05 2.49811e-05 2.42889e-05
2.29441e-05 3.40368e-05 2.9581e-05
3.21552e-05 3.90147e-05 4.04891e-05
4.16452e-05 5.49017e-05 7.82124e-05
4.74638e-05 7.94763e-05 0.000125092
4.94208e-05 0.000107935 0.000176798
4.87381e-05 0.00013707 0.000229002
4.7352e-05 0.000165672 0.000278094
4.09183e-05 0.000195231 0.000321179
2.77896e-05 0.000208389 0.000339579
2.07183e-05 0.000215735 0.000355719
1.88967e-05 0.000226397 0.000382119
1.71653e-05 0.000238046 0.000402359
9.17605e-06 0.000250616 0.000416993
1.68259e-06 0.000253712 0.000422155
-6.26073e-06 0.000255138 0.000427923
-1.51256e-05 0.000253411 0.000428199
-1.86596e-05 0.000243382 0.000423142
-2.28983e-05 0.000233368 0.000410323
-3.23466e-05 0.000223045 0.000388532
-4.73866e-05 0.000215456 0.00037307
-5.59188e-05 0.000202055 0.000353708
-5.91293e-05 0.000171279 0.00030602
-6.09344e-05 0.000140424 0.000250762
-5.94339e-05 0.000108398 0.000191764
-5.34275e-05 7.66761e-05 0.000133496
-4.30826e-05 4.87419e-05 8.0979e-05
-3.19595e-05 2.98858e-05 3.88821e-05
-2.47719e-05 2.41088e-05 2.66707e-05
-1.69747e-05 1.50376e-05 2.14318e-05
-1.15096e-05 4.31492e-06 1.54124e-05
-8.31081e-06 1.73547e-07 9.93628e-06
-6.87164e-06 -5.82688e-07 4.84091e-06
0 0 0
6.51123e-06 0 0
8.8885e-06 2.5727e-06 6.58282e-06
1.46314e-05 7.12189e-06 1.35144e-05
2.52986e-05 1.80798e-05 2.04871e-05
3.79153e-05 4.64835e-05 2.59845e-05
3.48047e-05 7.7141e-05 2.77748e-05
5.03378e-05 8.08866e-05 3.68886e-05
6.87863e-05 0.00010003 9.37301e-05
7.85987e-05 0.000135741 0.000167852
8.12106e-05 0.000176115 0.000248672
7.98445e-05 0.000216194 0.000328832
7.9129e-05 0.000254471 0.000402911
6.91391e-05 0.00029526 0.000465802
4.41544e-05 0.000314523 0.00049245
3.26644e-05 0.000324529 0.000517571
3.12504e-05 0.00034006 0.000559354
2.98373e-05 0.000356262 0.000589815
1.50213e-05 0.000373223 0.000609846
2.31644e-06 0.000376069 0.000617281
-1.09356e-05 0.000375801 0.000626054
-2.67919e-05 0.000372738 0.0006269
-3.08341e-05 0.000355737 0.000621472
-3.58559e-05 0.000339085 0.000602106
-5.04636e-05 0.000322273 0.000566846
-7.73042e-05 0.000311639 0.000542536
-9.00416e-05 0.000292602 0.000514371
-9.35235e-05 0.000252201 0.000444459
-9.65794e-05 0.000213423 0.00036087
-9.47474e-05 0.000172326 0.000270163
-8.48421e-05 0.000130307 0.000179169
-6.5271e-05 9.21455e-05 9.65168e-05
-4.68048e-05 7.00404e-05 3.36842e-05
-4.6231e-05 6.56412e-05 2.31222e-05
-3.1103e-05 3.52156e-05 2.19981e-05
-1.91655e-05 8.30441e-06 1.87655e-05
-1.26415e-05 -1.30684e-08 1.29145e-05
-9.88699e-06 -1.17623e-06 6.43147e-06
0 0 0
8.9353e-06 0 0
1.36285e-05 5.68647e-07 6.87616e-06
2.64723e-05 3.25622e-06 1.37407e-05
5.5651e-05 1.58604e-05 1.86782e-05
0.000102201 7.28327e-05 1.42134e-05
4.58664e-05 0.000222467 -2.16221e-06
7.34808e-05 0.000205558 -1.82521e-05
0.000108635 0.0002545 6.22976e-05
0.000123111 0.000325269 0.000171258
0.000125326 0.000398882 0.00028386
0.000121937 0.000469639 0.000391286
0.000123375 0.000531018 0.00048811
0.000110744 0.000558947 0.00056621
6.6966e-05 0.000569296 0.000598744
5.05358e-05 0.000611472 0.00063337
4.91189e-05 0.000690518 0.000691813
4.77742e-05 0.00071965 0.000731511
2.11769e-05 0.000699646 0.000753755
2.00324e-06 0.000697251 0.000763136
-1.76007e-05 0.000692938 0.000775018
-4.48216e-05 0.000691124 0.000776889
-4.9143e-05 0.000702674 0.000774561
-5.49109e-05 0.000667813 0.00074957
-7.43567e-05 0.000587404 0.000699033
-0.000118229 0.000545756 0.000665148
-0.000133582 0.000534829 0.000630584
-0.00013567 0.000507756 0.000543171
-0.000141106 0.000450362 0.000433267
-0.000140088 0.000384262 0.000310998
-0.000126035 0.00031434 0.000183882
-8.99713e-05 0.000244368 6.29187e-05
-5.80253e-05 0.000191544 -2.45501e-05
-0.000109672 0.000207947 -8.17046e-06
-6.10134e-05 5.97356e-05 1.07008e-05
-3.08293e-05 4.47597e-06 1.82025e-05
-1.73102e-05 -5.02367e-06 1.40836e-05
-1.22742e-05 -3.761e-06 7.19792e-06
0 0 0
9.24256e-06 0 0
1.51994e-05 -4.02042e-06 6.39678e-06
3.34417e-05 -9.76694e-06 1.28833e-05
8.55806e-05 -1.87876e-05 1.71511e-05
0.000254294 -3.09515e-05 6.37852e-06
3.22261e-05 -2.44717e-05 -4.12508e-05
0.00010115 2.53848e-06 -0.000136072
0.000147087 -7.54392e-06 -2.10007e-05
0.000162901 -2.63195e-05 0.000119289
0.000163583 -4.65629e-05 0.000247416
0.000155348 -6.6099e-05 0.0003635
0.000139832 -8.36444e-05 0.000466832
0.000123356 -9.85682e-05 0.000555032
0.000111235 -0.000105022 0.000592516
9.18777e-05 -0.000110858 0.000625673
6.51089e-05 -0.000120818 0.000680074
3.87952e-05 -0.000128737 0.000721697
1.95081e-05 -0.000134615 0.000752208
2.78082e-07 -0.000136725 0.00076336
-1.92752e-05 -0.000139201 0.000777138
-3.91951e-05 -0.000139445 0.000779091
-6.71011e-05 -0.000137802 0.000772154
-9.60034e-05 -0.000132922 0.00074745
-0.000117131 -0.000124405 0.000701044
-0.000130422 -0.000118646 0.000668251
-0.000148563 -0.000111855 0.000628826
-0.000165944 -9.51472e-05 0.000530633
-0.00017575 -7.4804e-05 0.000411982
-0.000176525 -5.19466e-05 0.00027803
-0.000162198 -2.83583e-05 0.000132102
-0.000116993 -6.94744e-06 -2.32495e-05
-4.17101e-05 2.53146e-06 -0.000147401
-0.000258425 -3.2896e-05 -4.72566e-05
-8.98668e-05 -4.42162e-05 4.2633e-06
-3.71668e-05 -3.1747e-05 1.7469e-05
-1.84022e-05 -1.93054e-05 1.36175e-05
-1.21619e-05 -8.99846e-06 6.88043e-06
0 0 0
7.30947e-06 0 0
1.26272e-05 -7.55321e-06 5.05115e-06
2.97276e-05 -2.09137e-05 1.09106e-05
8.12226e-05 -5.24705e-05 1.84324e-05
0.000263963 -0.00013758 2.97628e-05
7.22662e-05 -0.000272974 5.63796e-05
0.000106127 -0.000320053 0.000513317
0.000146672 -0.000437171 0.000709717
0.000161349 -0.000591512 0.000985225
0.000162036 -0.000759644 0.0012668
0.000154338 -0.000928055 0.00154265
0.000139498 -0.00108838 0.00180596
0.000123406 -0.00123336 0.00204601
0.000111446 -0.00129757 0.002152
9.22064e-05 -0.00135563 0.00224713
6.54006e-05 -0.00145195 0.00240219
3.90332e-05 -0.00152066 0.00250968
1.97772e-05 -0.00156219 0.00257214
6.27352e-07 -0.00157301 0.00258745
-1.87164e-05 -0.00157491 0.00258676
-3.83507e-05 -0.00156588 0.0025708
-6.56625e-05 -0.0015276 0.00250716
-9.37209e-05 -0.00146123 0.00239884
-0.000113988 -0.00136606 0.00224342
-0.000126626 -0.00130811 0.00214831
-0.000143683 -0.00124371 0.00204249
-0.000159593 -0.00109749 0.00180313
-0.000168154 -0.000935109 0.00154086
-0.000168176 -0.000764189 0.00126625
-0.000153969 -0.000593603 0.000985941
-0.00011274 -0.000438063 0.000711447
-7.44442e-05 -0.000325259 0.00051467
-0.000269542 -0.000288577 5.7463e-05
-8.46907e-05 -0.000153576 2.94154e-05
-3.24875e-05 -6.67927e-05 1.87612e-05
-1.49558e-05 -3.12791e-05 1.14511e-05
-9.42341e-06 -1.29343e-05 5.40479e-06
0 0 0
2.79809e-08 0 0
2.93547e-08 -7.5545e-06 2.44281e-08
3.29972e-08 -2.09162e-05 4.91074e-08
4.14064e-08 -5.24739e-05 7.39115e-08
6.27834e-08 -0.000137582 9.75564e-08
-1.86405e-08 -0.00027297 1.06899e-07
-2.1626e-08 -0.000320047 -1.15874e-09
-2.54669e-08 -0.000437163 -3.97744e-09
-2.93197e-08 -0.000591505 -1.95254e-09
-3.1545e-08 -0.00075964 -1.13961e-09
-3.19615e-08 -0.000928054 -4.79007e-10
-3.06368e-08 -0.00108838 1.14448e-10
-2.81215e-08 -0.00123336 6.04289e-10
-2.59531e-08 -0.00129757 7.9133e-10
-2.27025e-08 -0.00135563 9.34775e-10
-1.80964e-08 -0.00145195 1.11795e-09
-1.31645e-08 -0.00152067 1.1787e-09
-9.35872e-09 -0.00156219 1.14088e-09
-5.65173e-09 -0.00157302 1.09137e-09
-2.3037e-09 -0.00157492 9.45357e-10
8.41588e-10 -0.00156589 8.6086e-10
4.77505e-09 -0.0015276 6.81691e-10
8.00231e-09 -0.00146123 4.78347e-10
9.21902e-09 -0.00136607 2.49561e-10
9.17639e-09 -0.00130812 1.2751e-10
9.72703e-09 -0.00124371 5.20184e-11
1.0776e-08 -0.00109749 -9.61131e-11
1.12656e-08 -0.000935111 -2.44835e-10
1.1122e-08 -0.000764191 -3.75471e-10
1.01815e-08 -0.000593604 -4.95758e-10
7.86757e-09 -0.000438062 -8.16033e-10
3.83864e-09 -0.000325254 -4.76298e-09
3.18398e-08 -0.000288567 -2.04731e-08
1.39716e-08 -0.000153572 -2.04079e-08
8.52299e-09 -6.67912e-05 -1.54136e-08
6.37947e-09 -3.12784e-05 -9.98314e-09
5.58766e-09 -1.2934e-05 -4.86524e-09
0 0 0
-7.25496e-06 0 0
-1.25699e-05 -4.025e-06 -5.00373e-06
-2.96626e-05 -9.77665e-06 -1.08155e-05
-8.11382e-05 -1.88035e-05 -1.82899e-05
-0.000263827 -3.09726e-05 -2.95764e-05
-7.22943e-05 -2.4478e-05 -5.61768e-05
-0.000106167 2.55362e-06 -0.000513306
-0.000146723 -7.52521e-06 -0.000709718
-0.000161408 -2.63052e-05 -0.000985224
-0.000162099 -4.65541e-05 -0.00126679
-0.000154402 -6.60959e-05 -0.00154264
-0.00013956 -8.36466e-05 -0.00180596
-0.000123462 -9.85757e-05 -0.00204601
-0.000111497 -0.000105033 -0.002152
-9.2251e-05 -0.000110868 -0.00224713
-6.5436e-05 -0.00012083 -0.00240219
-3.90586e-05 -0.00012875 -0.00250968
-1.9795e-05 -0.000134628 -0.00257214
-6.37559e-07 -0.000136738 -0.00258745
1.87129e-05 -0.000139213 -0.00258676
3.83535e-05 -0.000139456 -0.0025708
6.56733e-05 -0.000137812 -0.00250716
9.37384e-05 -0.00013293 -0.00239884
0.000114008 -0.00012441 -0.00224343
0.000126645 -0.000118649 -0.00214832
0.000143703 -0.000111859 -0.0020425
0.000159615 -9.51509e-05 -0.00180314
0.000168177 -7.48064e-05 -0.00154087
0.000168199 -5.19476e-05 -0.00126626
0.000153991 -2.83581e-05 -0.00098595
0.000112761 -6.94535e-06 -0.000711457
7.44606e-05 2.5437e-06 -0.000514686
0.000269594 -3.28567e-05 -5.7508e-05
8.4716e-05 -4.42002e-05 -2.94572e-05
3.25036e-05 -3.17411e-05 -1.87919e-05
1.49681e-05 -1.93028e-05 -1.14708e-05
9.43432e-06 -8.99739e-06 -5.41436e-06
0 0 0
-9.19055e-06 0 0
-1.51448e-05 5.60409e-07 -6.35166e-06
-3.33799e-05 3.23804e-06 -1.2793e-05
-8.54987e-05 1.58261e-05 -1.70164e-05
-0.000254142 7.27587e-05 -6.20353e-06
-3.2228e-05 0.000222309 4.14414e-05
-0.000101184 0.00020541 0.000136245
-0.000147136 0.000254375 2.11442e-05
-0.000162958 0.000325174 -0.000119179
-0.000163645 0.000398823 -0.000247341
-0.000155411 0.000469618 -0.000363462
-0.000139893 0.000531035 -0.000466828
-0.000123412 0.000558999 -0.000555056
-0.000111284 0.000569365 -0.000592552
-9.192e-05 0.000611558 -0.00062572
-6.51422e-05 0.000690639 -0.000680138
-3.88186e-05 0.000719794 -0.000721771
-1.95236e-05 0.0006998 -0.000752289
-2.86053e-07 0.00069741 -0.000763442
1.92739e-05 0.000693105 -0.00077722
3.91998e-05 0.000691293 -0.000779173
6.71139e-05 0.000702851 -0.000772233
9.60235e-05 0.000667983 -0.000747526
0.000117154 0.000587552 -0.000701116
0.000130441 0.000545891 -0.000668321
0.000148584 0.000534963 -0.000628892
0.000165968 0.000507887 -0.000530694
0.000175774 0.000450479 -0.000412038
0.000176549 0.000384362 -0.000278081
0.000162221 0.000314423 -0.000132151
0.000117019 0.000244436 2.32027e-05
4.17538e-05 0.000191592 0.000147353
0.000258454 0.000207973 4.72043e-05
8.9887e-05 5.97529e-05 -4.30584e-06
3.71813e-05 4.48466e-06 -1.74989e-05
1.84138e-05 -5.0192e-06 -1.36364e-05
1.21723e-05 -3.75905e-06 -6.88964e-06
0 0 0
-8.88771e-06 0 0
-1.35793e-05 2.56244e-06 -6.83495e-06
-2.64189e-05 7.10011e-06 -1.36586e-05
-5.5589e-05 1.80429e-05 -1.85566e-05
-0.000102131 4.6423e-05 -1.40576e-05
-4.58581e-05 7.70616e-05 2.32774e-06
-7.35022e-05 8.08069e-05 1.8412e-05
-0.000108667 9.99621e-05 -6.21611e-05
-0.00012315 0.00013569 -0.000171153
-0.000125369 0.000176082 -0.000283789
-0.000121981 0.00021618 -0.000391251
-0.000123417 0.000254477 -0.00048811
-0.000110783 0.000295287 -0.000566239
-6.69963e-05 0.000314559 -0.000598785
-5.056e-05 0.000324573 -0.000633423
-4.91396e-05 0.000340117 -0.000691883
-4.7792e-05 0.00035633 -0.000731593
-2.11867e-05 0.0003733 -0.000753842
-2.00698e-06 0.00037615 -0.000763225
1.76026e-05 0.000375885 -0.000775108
4.48309e-05 0.000372823 -0.000776978
4.91525e-05 0.000355819 -0.000774649
5.492e-05 0.000339164 -0.000749654
7.4368e-05 0.000322348 -0.000699111
0.000118247 0.000311712 -0.000665222
0.000133601 0.000292671 -0.000630656
0.000135687 0.000252262 -0.000543238
0.000141122 0.000213477 -0.000433328
0.000140104 0.000172374 -0.000311054
0.00012605 0.000130347 -0.000183933
8.99876e-05 9.21787e-05 -6.2966e-05
5.80473e-05 7.00659e-05 2.45056e-05
0.000109692 6.56608e-05 8.12702e-06
6.10293e-05 3.52306e-05 -1.07387e-05
3.08417e-05 8.31342e-06 -1.82296e-05
1.73206e-05 -7.91242e-09 -1.41009e-05
1.22836e-05 -1.17387e-06 -7.20633e-06
0 0 0
-6.47475e-06 0 0
-8.85164e-06 2.76858e-06 -6.55146e-06
-1.45939e-05 6.52386e-06 -1.34523e-05
-2.5261e-05 1.29613e-05 -2.03962e-05
-3.78844e-05 2.49329e-05 -2.58697e-05
-3.47973e-05 3.39821e-05 -2.76534e-05
-5.03471e-05 3.89597e-05 -3.67691e-05
-6.88032e-05 5.48541e-05 -9.36264e-05
-7.86203e-05 7.94393e-05 -0.000167772
-8.12345e-05 0.000107911 -0.000248618
-7.98687e-05 0.000137059 -0.000328806
-7.91522e-05 0.000165676 -0.000402913
-6.91597e-05 0.000195249 -0.000465828
-4.41699e-05 0.000208412 -0.000492486
-3.26761e-05 0.000215764 -0.000517616
-3.12598e-05 0.000226433 -0.000559413
-2.98452e-05 0.000238089 -0.000589883
-1.5025e-05 0.000250665 -0.000609919
-2.31655e-06 0.000253763 -0.000617356
1.09387e-05 0.00025519 -0.000626129
2.67987e-05 0.000253463 -0.000626976
3.08406e-05 0.000243432 -0.000621545
3.58615e-05 0.000233415 -0.000602176
5.04705e-05 0.000223091 -0.000566911
7.73153e-05 0.0002155 -0.000542598
9.00533e-05 0.000202098 -0.00051443
9.35336e-05 0.000171317 -0.000444514
9.65887e-05 0.000140458 -0.00036092
9.47563e-05 0.000108427 -0.000270208
8.48507e-05 7.67012e-05 -0.00017921
6.52797e-05 4.87632e-05 -9.65538e-05
4.68152e-05 2.99032e-05 -3.37176e-05
4.62421e-05 2.41237e-05 -2.31535e-05
3.1113e-05 1.505e-05 -2.20259e-05
1.91741e-05 4.32319e-06 -1.87857e-05
1.2649e-05 1.78602e-07 -1.29275e-05
9.89404e-06 -5.80291e-07 -6.43784e-06
0 0 0
-4.13997e-06 0 0
-5.27268e-06 2.79365e-06 -5.10717e-06
-7.83617e-06 6.05346e-06 -1.06591e-05
-1.2283e-05 1.04672e-05 -1.69555e-05
-1.82179e-05 1.70399e-05 -2.42142e-05
-2.29391e-05 2.16966e-05 -2.95023e-05
-3.2159e-05 2.69297e-05 -4.04113e-05
-4.16538e-05 4.19554e-05 -7.81443e-05
-4.74754e-05 6.21275e-05 -0.000125038
-4.94339e-05 8.53075e-05 -0.000176763
-4.87513e-05 0.000109435 -0.000228986
-4.73645e-05 0.000133302 -0.000278096
-4.09291e-05 0.000156929 -0.000321198
-2.77975e-05 0.000167211 -0.000339605
-2.07239e-05 0.000173864 -0.00035575
-1.89009e-05 0.0001838 -0.00038216
-1.71684e-05 0.000193611 -0.000402406
-9.177e-06 0.000203342 -0.000417043
-1.68164e-06 0.000206193 -0.000422207
6.26339e-06 0.000208275 -0.000427975
1.513e-05 0.000207393 -0.000428251
1.86638e-05 0.000201168 -0.000423193
2.29021e-05 0.00019387 -0.000410371
3.23509e-05 0.000185115 -0.000388576
4.7393e-05 0.000178448 -0.000373113
5.59255e-05 0.000167731 -0.00035375
5.91352e-05 0.00014217 -0.000306057
6.09398e-05 0.000115371 -0.000250796
5.94389e-05 8.77088e-05 -0.000191794
5.34323e-05 6.07709e-05 -0.000133523
4.30874e-05 3.70081e-05 -8.10037e-05
3.19649e-05 1.90168e-05 -3.8904e-05
2.47779e-05 1.29272e-05 -2.66909e-05
1.69806e-05 8.14915e-06 -2.14499e-05
1.1515e-05 2.63337e-06 -1.54256e-05
8.31572e-06 2.64025e-07 -9.94491e-06
6.8763e-06 -2.73431e-07 -4.84516e-06
0 0 0
-2.01408e-06 0 0
-2.47835e-06 2.81232e-06 -2.78843e-06
-3.50994e-06 5.91355e-06 -5.86606e-06
-5.30073e-06 9.72274e-06 -9.51345e-06
-8.10343e-06 1.4904e-05 -1.40839e-05
-1.14275e-05 1.87311e-05 -1.75984e-05
-1.57648e-05 2.41151e-05 -2.39106e-05
-1.9828e-05 3.89315e-05 -4.27974e-05
-2.24944e-05 5.75321e-05 -6.56302e-05
-2.34885e-05 7.8642e-05 -9.08142e-05
-2.31814e-05 0.000100715 -0.000116425
-2.22758e-05 0.000122579 -0.000140745
-1.91774e-05 0.000143759 -0.000162466
-1.35093e-05 0.000152927 -0.000171776
-1.01489e-05 0.000159357 -0.00017966
-8.96982e-06 0.000169178 -0.000192426
-7.86546e-06 0.00017831 -0.000202476
-4.31127e-06 0.000186857 -0.000210079
-8.41829e-07 0.000189548 -0.00021271
2.87214e-06 0.000191845 -0.000215564
6.90247e-06 0.00019132 -0.000215623
8.90474e-06 0.000186592 -0.000212756
1.12777e-05 0.00018029 -0.000206419
1.58946e-05 0.00017199 -0.000196033
2.26845e-05 0.000165648 -0.000188534
2.68971e-05 0.000155979 -0.000178766
2.87013e-05 0.000132605 -0.000154789
2.95602e-05 0.000107581 -0.000127455
2.87761e-05 8.17799e-05 -9.85229e-05
2.59892e-05 5.67817e-05 -7.01182e-05
2.14807e-05 3.45468e-05 -4.447e-05
1.6198e-05 1.67778e-05 -2.3303e-05
1.16404e-05 1.0521e-05 -1.62713e-05
7.87736e-06 6.53584e-06 -1.26938e-05
5.53959e-06 2.31283e-06 -8.64838e-06
4.16056e-06 4.17058e-07 -5.41323e-06
3.52766e-06 -1.06143e-07 -2.60452e-06
0 0 0
0 0 0
0 0 0
0 0 0
0 0 0
0 0 0
0 0 0
0 0 0
0 0 0
0 0 0
0 0 0
0 0 0
0 0 0
0 0 0
0 0 0
0 0 0
0 0 0
0 0 0
0 0 0
0 0 0
0 0 0
0 0 0
0 0 0
0 0 0
0 0 0
0 0 0
0 0 0
0 0 0
0 0 0
0 0 0
0 0 0
0 0 0
0 0 0
0 0 0
0 0 0
0 0 0
0 0 0
0 0 0
0 0 0
0 0 0
0 9.71211e-06 0
0 1.94076e-05 0
0 2.92916e-05 0
0 4.03007e-05 0
0 4.92655e-05 0
0 6.66047e-05 0
0 0.000120426 0
0 0.000187416 0
0 0.000262827 0
0 0.000340565 0
0 0.000415357 0
0 0.000483701 0
0 0.000512914 0
0 0.000536028 0
0 0.000572646 0
0 0.000603442 0
0 0.000629299 0
0 0.000638324 0
0 0.00064844 0
0 0.000648924 0
0 0.000639706 0
0 0.000621459 0
0 0.000592019 0
0 0.00056945 0
0 0.00053779 0
0 0.000459296 0
0 0.000370705 0
0 0.000277141 0
0 0.000185484 0
0 0.000103405 0
0 3.72059e-05 0
0 1.61312e-05 0
0 6.54591e-06 0
0 -4.28167e-07 0
0 -2.57634e-06 0
0 -1.94485e-06 0
0 0 0
5.29544e-06 0 0
5.92325e-06 9.04766e-06 2.85456e-06
7.29361e-06 1.78647e-05 6.14883e-06
9.93672e-06 2.61188e-05 1.03485e-05
1.80521e-05 3.35412e-05 1.60116e-05
3.55689e-05 3.84757e-05 2.01522e-05
5.57791e-05 5.0751e-05 2.67938e-05
7.00201e-05 0.000103923 4.62705e-05
7.90903e-05 0.000175284 7.03123e-05
8.16074e-05 0.000256135 9.71809e-05
7.83755e-05 0.000338461 0.000124548
7.11549e-05 0.000416418 0.000150112
6.03179e-05 0.000486222 0.000172309
4.74087e-05 0.000515944 0.000180778
3.66117e-05 0.000540263 0.000186181
2.8976e-05 0.00057931 0.000193882
2.21341e-05 0.000611172 0.000201101
1.29213e-05 0.000636701 0.000208422
3.61265e-06 0.000645626 0.000211373
-6.82201e-06 0.00065569 0.00021585
-1.82363e-05 0.000656241 0.000217104
-2.87411e-05 0.000647346 0.000217089
-4.12114e-05 0.00062776 0.000215778
-5.76882e-05 0.000595243 0.00021215
-7.6322e-05 0.000571192 0.000207337
-9.20705e-05 0.00053904 0.000197657
-0.00010265 0.000459295 0.00017086
-0.000107851 0.000367602 0.000140066
-0.000105977 0.000269378 0.000107463
-9.63009e-05 0.000172031 7.58499e-05
-8.02501e-05 8.51074e-05 4.78742e-05
-5.6057e-05 1.89489e-05 2.53258e-05
-3.29829e-05 2.74607e-06 1.77467e-05
-2.065e-05 -2.71214e-06 1.36286e-05
-1.56737e-05 -5.57641e-06 8.90335e-06
-1.27875e-05 -5.4508e-06 5.39111e-06
-1.1419e-05 -3.27381e-06 2.54231e-06
0 0 0
1.0405e-05 0 0
1.15355e-05 7.87687e-06 5.1892e-06
1.36939e-05 1.53884e-05 1.1184e-05
1.72463e-05 2.13963e-05 1.87948e-05
2.91662e-05 2.26305e-05 2.89356e-05
6.22238e-05 1.73119e-05 3.60977e-05
0.000112224 1.12543e-05 4.80491e-05
0.000145769 6.42218e-05 8.75767e-05
0.000164976 0.000147622 0.000137951
0.00016914 0.000240278 0.00019458
0.000161221 0.000331054 0.000252311
0.000145021 0.000414165 0.000306159
0.000122838 0.000485592 0.000352366
9.83583e-05 0.000515884 0.000369495
7.6697e-05 0.000542779 0.000380213
5.99419e-05 0.00058716 0.000395662
4.47584e-05 0.000620942 0.000410591
2.63911e-05 0.000644968 0.000426092
7.85428e-06 0.000653452 0.000432324
-1.28919e-05 0.000663102 0.000441866
-3.56046e-05 0.000663754 0.000444608
-5.83828e-05 0.000655922 0.000444741
-8.5182e-05 0.000633538 0.000442293
-0.000118113 0.000594165 0.000435102
-0.000153454 0.000566987 0.000425355
-0.000185289 0.000534455 0.000405468
-0.000208355 0.00045394 0.000349245
-0.000220342 0.000357644 0.000284136
-0.000217631 0.000251209 0.000215273
-0.000197431 0.00014185 0.000148674
-0.000160442 4.2044e-05 9.02173e-05
-0.000102352 -2.53826e-05 4.47069e-05
-5.76956e-05 -2.38445e-05 3.10592e-05
-3.71776e-05 -1.87377e-05 2.41876e-05
-2.90665e-05 -1.41971e-05 1.61874e-05
-2.40264e-05 -1.04935e-05 9.94013e-06