<?xml version="1.0"?>
<VTKFile type="RectilinearGrid" version="0.1" byte_order="LittleEndian">
<RectilinearGrid WholeExtent="0 37 0 14 0 34">
<Piece Extent="0 37 0 14 0 34">
<PointData>
<DataArray type="Float32" Name="MVP" NumberOfComponents="3" format="ascii">
0 0 0
0 0 0
0 0 0
0 0 0
0 0 0
0 0 0
0 0 0
0 0 0
0 0 0
0 0 0
0 0 0
0 0 0
0 0 0
0 0 0
0 0 0
0 0 0
0 0 0
0 0 0
0 0 0
0 0 0
0 0 0
0 0 0
0 0 0
0 0 0
0 0 0
0 0 0
0 0 0
0 0 0
0 0 0
0 0 0
0 0 0
0 0 0
0 0 0
0 0 0
0 0 0
0 0 0
0 0 0
0 0 0
0 0 0
0 0 -2.9861e-05
0 0 -6.27834e-05
0 0 -0.000101318
0 0 -0.000146929
0 0 -0.000175425
0 0 -0.000211781
0 0 -0.000294405
0 0 -0.000379652
0 0 -0.000465723
0 0 -0.00055028
0 0 -0.00062947
0 0 -0.000697276
0 0 -0.000727665
0 0 -0.000759847
0 0 -0.000814594
0 0 -0.000848643
0 0 -0.000862287
0 0 -0.000865254
0 0 -0.000863171
0 0 -0.000858233
0 0 -0.000841082
0 0 -0.000804333
0 0 -0.000747953
0 0 -0.000715516
0 0 -0.000685388
0 0 -0.00061908
0 0 -0.000542092
0 0 -0.00046007
0 0 -0.000376515
0 0 -0.000293479
0 0 -0.000212598
0 0 -0.000176754
0 0 -0.000148291
0 0 -0.00010224
0 0 -6.33069e-05
0 0 -3.00887e-05
0 0 0
0 0 0
0 0 -5.57173e-05
0 0 -0.000117395
0 0 -0.000189884
0 0 -0.000275512
0 0 -0.000329041
0 0 -0.000398528
0 0 -0.000556917
0 0 -0.00071882
0 0 -0.000881629
0 0 -0.00104107
0 0 -0.00118878
0 0 -0.00130983
0 0 -0.00136421
0 0 -0.00142848
0 0 -0.0015403
0 0 -0.0016052
0 0 -0.00162387
0 0 -0.00162809
0 0 -0.00162411
0 0 -0.00161611
0 0 -0.0015907
0 0 -0.00152068
0 0 -0.00140591
0 0 -0.00134123
0 0 -0.00128735
0 0 -0.00116911
0 0 -0.00102566
0 0 -0.000871155
0 0 -0.000713242
0 0 -0.00055558
0 0 -0.000400409
0 0 -0.000331791
0 0 -0.000278192
0 0 -0.000191559
0 0 -0.000118282
0 0 -5.60833e-05
0 0 0
0 0 0
0 0 -7.32953e-05
0 0 -0.000154743
0 0 -0.000250395
0 0 -0.000360908
0 0 -0.000428124
0 0 -0.000519213
0 0 -0.000729231
0 0 -0.000939981
0 0 -0.00115082
0 0 -0.00135658
0 0 -0.00154333
0 0 -0.00167912
0 0 -0.00173954
0 0 -0.00183328
0 0 -0.00200263
0 0 -0.00208791
0 0 -0.0020902
0 0 -0.00209206
0 0 -0.00208672
0 0 -0.00207979
0 0 -0.00206833
0 0 -0.00197629
0 0 -0.00180344
0 0 -0.00170936
0 0 -0.00164952
0 0 -0.00151734
0 0 -0.00133642
0 0 -0.00113753
0 0 -0.000933526
0 0 -0.000728599
0 0 -0.000522632
0 0 -0.000432356
0 0 -0.000364636
0 0 -0.000252371
0 0 -0.000155635
0 0 -7.36156e-05
0 0 0
0 0 0
0 0 -7.81653e-05
0 0 -0.000164757
0 0 -0.00026377
0 0 -0.00036482
0 0 -0.00041016
0 0 -0.000484963
0 0 -0.000670428
0 0 -0.000850544
0 0 -0.00103148
0 0 -0.00120885
0 0 -0.0013649
0 0 -0.00143447
0 0 -0.00145939
0 0 -0.00156729
0 0 -0.00177017
0 0 -0.00184581
0 0 -0.0017938
0 0 -0.00178964
0 0 -0.00178436
0 0 -0.00178345
0 0 -0.00182604
0 0 -0.00174376
0 0 -0.00153825
0 0 -0.00143047
0 0 -0.00140587
0 0 -0.00133945
0 0 -0.00118945
0 0 -0.00101945
0 0 -0.000846019
0 0 -0.000672305
0 0 -0.000490589
0 0 -0.000415544
0 0 -0.000368627
0 0 -0.000265151
0 0 -0.000165097
0 0 -7.81864e-05
0 0 0
0 0 0
0 0 -7.05476e-05
0 0 -0.000148165
0 0 -0.00023366
0 0 -0.000302671
0 0 -0.00028072
0 0 -0.000276347
0 0 -0.000299122
0 0 -0.00034081
0 0 -0.000390642
0 0 -0.000444465
0 0 -0.000499296
0 0 -0.000551824
0 0 -0.000575742
0 0 -0.000597616
0 0 -0.000634093
0 0 -0.00065918
0 0 -0.000672531
0 0 -0.000674928
0 0 -0.000671334
0 0 -0.00066552
0 0 -0.000646032
0 0 -0.000616551
0 0 -0.000577985
0 0 -0.000556003
0 0 -0.000532583
0 0 -0.000482724
0 0 -0.000432203
0 0 -0.000383688
0 0 -0.000339558
0 0 -0.000303291
0 0 -0.000284086
0 0 -0.000286635
0 0 -0.000305902
0 0 -0.000234535
0 0 -0.000148211
0 0 -7.04392e-05
0 0 0
0 0 0
0 0 -5.16611e-05
0 0 -0.000108335
0 0 -0.000169902
0 0 -0.000217282
0 0 -0.00020138
0 0 -0.000156467
0 0 -0.000123404
0 0 -0.00011278
0 0 -0.000109568
0 0 -0.000110377
0 0 -0.00011374
0 0 -0.000118659
0 0 -0.000121333
0 0 -0.000124001
0 0 -0.000128894
0 0 -0.000132134
0 0 -0.000133139
0 0 -0.000132755
0 0 -0.000130257
0 0 -0.000128267
0 0 -0.000122998
0 0 -0.000116696
0 0 -0.000110328
0 0 -0.000107564
0 0 -0.000105211
0 0 -0.000102084
0 0 -0.000101652
0 0 -0.000104463
0 0 -0.000111512
0 0 -0.000125547
0 0 -0.000160061
0 0 -0.000203252
0 0 -0.000218927
0 0 -0.000170398
0 0 -0.00010833
0 0 -5.1569e-05
0 0 0
0 0 0
0 0 1.75174e-08
0 0 3.54491e-08
0 0 5.45095e-08
0 0 7.62621e-08
0 0 9.05897e-08
0 0 8.38301e-08
0 0 6.34756e-08
0 0 3.97173e-08
0 0 1.27595e-08
0 0 -1.56453e-08
0 0 -4.34713e-08
0 0 -6.87725e-08
0 0 -7.96147e-08
0 0 -8.89537e-08
0 0 -1.03301e-07
0 0 -1.1185e-07
0 0 -1.14468e-07
0 0 -1.1359e-07
0 0 -1.07673e-07
0 0 -1.02931e-07
0 0 -9.01941e-08
0 0 -7.3523e-08
0 0 -5.38806e-08
0 0 -4.37519e-08
0 0 -3.39922e-08
0 0 -1.46942e-08
0 0 4.86998e-09
0 0 2.40574e-08
0 0 4.21308e-08
0 0 5.8148e-08
0 0 7.04175e-08
0 0 7.36574e-08
0 0 4.2069e-08
0 0 1.67941e-08
0 0 6.43396e-09
0 0 2.14667e-09
0 0 0
0 0 0
0 0 5.16951e-05
0 0 0.000108404
0 0 0.000170008
0 0 0.000217431
0 0 0.000201561
0 0 0.000156638
0 0 0.000123537
0 0 0.000112865
0 0 0.000109597
0 0 0.000110346
0 0 0.000113652
0 0 0.000118518
0 0 0.000121169
0 0 0.000123818
0 0 0.000128681
0 0 0.000131904
0 0 0.000132904
0 0 0.000132522
0 0 0.000130036
0 0 0.000128056
0 0 0.000122812
0 0 0.000116545
0 0 0.000110218
0 0 0.000107475
0 0 0.000105141
0 0 0.000102052
0 0 0.00010166
0 0 0.00010451
0 0 0.000111596
0 0 0.000125665
0 0 0.00016021
0 0 0.000203413
0 0 0.000219019
0 0 0.000170434
0 0 0.000108344
0 0 5.15734e-05
0 0 0
0 0 0
0 0 7.05799e-05
0 0 0.00014823
0 0 0.00023376
0 0 0.000302811
0 0 0.000280891
0 0 0.00027652
0 0 0.00029926
0 0 0.000340898
0 0 0.000390672
0 0 0.000444435
0 0 0.000499205
0 0 0.000551678
0 0 0.000575573
0 0 0.000597427
0 0 0.000633875
0 0 0.000658944
0 0 0.00067229
0 0 0.00067469
0 0 0.000671109
0 0 0.000665305
0 0 0.000645844
0 0 0.000616397
0 0 0.000577874
0 0 0.000555914
0 0 0.000532513
0 0 0.000482692
0 0 0.000432211
0 0 0.000383737
0 0 0.000339644
0 0 0.000303412
0 0 0.000284244
0 0 0.000286824
0 0 0.000305997
0 0 0.00023457
0 0 0.000148224
0 0 7.04434e-05
0 0 0
0 0 0
0 0 7.81948e-05
0 0 0.000164816
0 0 0.000263859
0 0 0.00036494
0 0 0.000410294
0 0 0.000485096
0 0 0.000670537
0 0 0.000850618
0 0 0.00103151
0 0 0.00120884
0 0 0.00136485
0 0 0.00143437
0 0 0.00145927
0 0 0.00156716
0 0 0.00177003
0 0 0.00184565
0 0 0.00179363
0 0 0.00178947
0 0 0.0017842
0 0 0.0017833
0 0 0.0018259
0 0 0.00174365
0 0 0.00153817
0 0 0.0014304
0 0 0.00140581
0 0 0.00133942
0 0 0.00118944
0 0 0.00101947
0 0 0.000846057
0 0 0.000672366
0 0 0.000490675
0 0 0.000415637
0 0 0.000368688
0 0 0.000265177
0 0 0.000165107
0 0 7.81899e-05
0 0 0
0 0 0
0 0 7.33177e-05
0 0 0.000154787
0 0 0.000250461
0 0 0.000360992
0 0 0.000428215
0 0 0.000519302
0 0 0.000729305
0 0 0.000940033
0 0 0.00115085
0 0 0.00135658
0 0 0.0015433
0 0 0.00167906
0 0 0.00173947
0 0 0.00183321
0 0 0.00200254
0 0 0.00208782
0 0 0.0020901
0 0 0.00209196
0 0 0.00208663
0 0 0.0020797
0 0 0.00206825
0 0 0.00197622
0 0 0.00180338
0 0 0.00170931
0 0 0.00164948
0 0 0.00151731
0 0 0.00133641
0 0 0.00113753
0 0 0.000933534
0 0 0.000728619
0 0 0.000522662
0 0 0.000432388
0 0 0.000364661
0 0 0.000252383
0 0 0.00015564
0 0 7.36174e-05
0 0 0
0 0 0
0 0 5.57323e-05
0 0 0.000117425
0 0 0.000189927
0 0 0.000275566
0 0 0.000329098
0 0 0.000398584
0 0 0.000556963
0 0 0.000718854
0 0 0.000881647
0 0 0.00104107
0 0 0.00118876
0 0 0.0013098
0 0 0.00136417
0 0 0.00142843
0 0 0.00154025
0 0 0.00160515
0 0 0.00162382
0 0 0.00162804
0 0 0.00162405
0 0 0.00161606
0 0 0.00159065
0 0 0.00152064
0 0 0.00140587
0 0 0.0013412
0 0 0.00128732
0 0 0.00116909
0 0 0.00102564
0 0 0.000871148
0 0 0.000713241
0 0 0.000555585
0 0 0.000400418
0 0 0.000331802
0 0 0.000278201
0 0 0.000191564
0 0 0.000118284
0 0 5.6084e-05
0 0 0
0 0 0
0 0 2.98685e-05
0 0 6.2798e-05
0 0 0.000101339
0 0 0.000146955
0 0 0.000175453
0 0 0.000211808
0 0 0.000294428
0 0 0.000379668
0 0 0.000465732
0 0 0.000550281
0 0 0.000629463
0 0 0.000697262
0 0 0.000727647
0 0 0.000759827
0 0 0.000814571
0 0 0.000848618
0 0 0.000862261
0 0 0.000865228
0 0 0.000863145
0 0 0.000858208
0 0 0.00084106
0 0 0.000804314
0 0 0.000747936
0 0 0.000715501
0 0 0.000685375
0 0 0.00061907
0 0 0.000542085
0 0 0.000460066
0 0 0.000376514
0 0 0.000293479
0 0 0.0002126
0 0 0.000176757
0 0 0.000148294
0 0 0.000102241
0 0 6.33076e-05
0 0 3.0089e-05
0 0 0
0 0 0
0 0 0
0 0 0
0 0 0
0 0 0
0 0 0
0 0 0
0 0 0
0 0 0
0 0 0
0 0 0
0 0 0
0 0 0
0 0 0
0 0 0
0 0 0
0 0 0
0 0 0
0 0 0
0 0 0
0 0 0
0 0 0
0 0 0
0 0 0
0 0 0
0 0 0
0 0 0
0 0 0
0 0 0
0 0 0
0 0 0
0 0 0
0 0 0
0 0 0
0 0 0
0 0 0
0 0 0
0 0 0
0 0 0
0 -3.02562e-05 0
0 -6.3874e-05 0
0 -0.000103669 0
0 -0.000151289 0
0 -0.000181082 0
0 -0.000218913 0
0 -0.00030495 0
0 -0.000393962 0
0 -0.000483917 0
0 -0.000572292 0
0 -0.000655084 0
0 -0.000726143 0
0 -0.000757984 0
0 -0.00079149 0
0 -0.000848467 0
0 -0.000884134 0
0 -0.000898753 0
0 -0.000901965 0
0 -0.000899894 0
0 -0.00089473 0
0 -0.000876675 0
0 -0.000838462 0
0 -0.000780117 0
0 -0.000746544 0
0 -0.000715188 0
0 -0.000646201 0
0 -0.000566365 0
0 -0.00048146 0
0 -0.000395104 0
0 -0.000309419 0
0 -0.000226033 0
0 -0.00018895 0
0 -0.00015924 0
0 -0.000110628 0
0 -6.89974e-05 0
0 -3.29652e-05 0
0 0 0
-3.09854e-05 0 0
-3.41965e-05 -2.61017e-05 -3.10501e-05
-4.00967e-05 -5.54139e-05 -6.60099e-05
-4.75624e-05 -9.05296e-05 -0.000108469
-5.92452e-05 -0.000132544 -0.000161047
-7.51421e-05 -0.000158916 -0.000194954
-8.52697e-05 -0.000193591 -0.000237187
-8.80063e-05 -0.000272943 -0.000331299
-8.88168e-05 -0.000353492 -0.000429639
-8.72141e-05 -0.000434188 -0.000530422
-8.17164e-05 -0.000512929 -0.000632032
-7.0176e-05 -0.000585078 -0.000732252
-6.30156e-05 -0.000641601 -0.000828002
-6.65106e-05 -0.000667045 -0.000870022
-5.67504e-05 -0.000700461 -0.000902901
-3.58562e-05 -0.000759773 -0.000952721
-1.52498e-05 -0.00079225 -0.000990428
-7.38832e-06 -0.000798253 -0.00101696
7.80088e-07 -0.000799752 -0.00102276
8.72358e-06 -0.000797862 -0.00102016
1.61467e-05 -0.000794575 -0.00101191
3.59342e-05 -0.0007854 -0.000981068
5.57383e-05 -0.000750645 -0.000939981
6.43342e-05 -0.000690258 -0.000888004
5.97766e-05 -0.000656861 -0.000854787
6.58943e-05 -0.000631847 -0.000813202
7.6601e-05 -0.000577176 -0.000719576
8.15904e-05 -0.000507793 -0.000622205
8.30182e-05 -0.000432369 -0.000523746
8.23615e-05 -0.000355176 -0.000426013
8.00948e-05 -0.000277931 -0.000330311
7.08937e-05 -0.000201238 -0.000238276
5.61581e-05 -0.000167282 -0.000196655
4.53575e-05 -0.000140949 -0.000162738
3.83797e-05 -9.78479e-05 -0.000109553
3.27821e-05 -6.07824e-05 -6.66059e-05
2.9716e-05 -2.89343e-05 -3.13048e-05
0 0 0
-5.77041e-05 0 0
-6.39527e-05 -1.75354e-05 -5.86385e-05
-7.53328e-05 -3.7581e-05 -0.000125528
-8.92719e-05 -6.16733e-05 -0.000208686
-0.000111349 -8.84946e-05 -0.00031471
-0.000143644 -0.000103623 -0.000385176
-0.000163495 -0.000126948 -0.000473013
-0.000167186 -0.00018257 -0.000666172
-0.000168017 -0.000235557 -0.00086642
-0.000164448 -0.000287674 -0.0010708
-0.000152459 -0.000337921 -0.00127676
-0.000125501 -0.000380623 -0.00148045
-0.000112938 -0.000398666 -0.0016765
-0.000132553 -0.000406181 -0.0017629
-0.000115564 -0.000437 -0.00182989
-6.82756e-05 -0.000496775 -0.00193139
-2.1659e-05 -0.00051878 -0.00200864
-1.11399e-05 -0.000503379 -0.00206364
1.57303e-06 -0.000501265 -0.00207556
1.38687e-05 -0.000499921 -0.00207031
2.35739e-05 -0.000500749 -0.00205344
6.85434e-05 -0.00051378 -0.00198973
0.000113625 -0.000490238 -0.00190572
0.000128401 -0.000430099 -0.00180005
0.000106944 -0.000399491 -0.00173246
0.000117532 -0.000392238 -0.00164697
0.000142796 -0.000375426 -0.00145524
0.000153747 -0.000334902 -0.00125737
0.00015693 -0.000287431 -0.00105785
0.000156362 -0.000238419 -0.000859689
0.000153595 -0.00018857 -0.000664724
0.000135632 -0.000135614 -0.000475529
0.000105653 -0.000112931 -0.00038875
8.5273e-05 -9.77355e-05 -0.000318078
7.22329e-05 -6.96579e-05 -0.000210654
6.14005e-05 -4.34072e-05 -0.000126528
5.54131e-05 -2.05999e-05 -5.90415e-05
0 0 0
-7.56559e-05 0 0
-8.4195e-05 -4.44069e-06 -7.90373e-05
-9.91991e-05 -9.44723e-06 -0.000171292
-0.000115284 -1.33138e-05 -0.000291075
-0.000140318 -5.52548e-06 -0.000453281
-0.000188719 1.47402e-05 -0.000569193
-0.000217203 2.8845e-05 -0.000713417
-0.000218024 4.86369e-05 -0.00101961
-0.000217892 7.48145e-05 -0.00133135
-0.000212473 0.000100525 -0.00164695
-0.000193071 0.000124941 -0.00196444
-0.000141698 0.000151922 -0.00227931
-0.000126386 0.000214807 -0.00258666
-0.000192807 0.000248813 -0.00272328
-0.000174282 0.000233309 -0.00282692
-8.97091e-05 0.000197491 -0.00298429
-6.19416e-06 0.000205501 -0.00310607
-7.2251e-06 0.000258827 -0.0031953
2.22712e-06 0.000264598 -0.00321422
1.11596e-05 0.000264534 -0.00320625
9.13274e-06 0.000258734 -0.00317982
9.02265e-05 0.000205642 -0.00307731
0.000171491 0.00019743 -0.00294546
0.000187077 0.000232235 -0.0027822
0.000118752 0.000247204 -0.00267787
0.000131442 0.000213347 -0.00254268
0.000180242 0.000150635 -0.0022419
0.000198066 0.000122988 -0.00193602
0.000202809 9.73956e-05 -0.00162855
0.000203175 6.99273e-05 -0.00132263
0.00020365 4.13087e-05 -0.00101894
0.00017813 1.87913e-05 -0.000718142
0.000133145 4.19158e-06 -0.000574879
0.000110353 -1.57926e-05 -0.000458032
9.5366e-05 -2.21663e-05 -0.000293341
8.10228e-05 -1.58886e-05 -0.000172242
7.28007e-05 -7.82033e-06 -7.936e-05
0 0 0
-8.02698e-05 0 0
-8.9087e-05 1.5958e-05 -8.82221e-05
-0.000102367 3.43942e-05 -0.000194601
-0.000105903 6.14058e-05 -0.000342352
-9.73347e-05 0.000124485 -0.000565952
-0.000157544 0.000257582 -0.000755615
-0.000194057 0.000412479 -0.000988769
-0.000188362 0.000732186 -0.00144452
-0.000188693 0.00100448 -0.00189163
-0.000184656 0.00126251 -0.0023392
-0.000162878 0.00150563 -0.00278735
-7.59052e-05 0.00170435 -0.00323042
-5.57803e-05 0.00173505 -0.00367014
-0.000221457 0.00173554 -0.00386889
-0.000208124 0.00190622 -0.00401468
-8.02816e-05 0.00223675 -0.00424045
4.79754e-05 0.00233621 -0.00441915
4.73461e-06 0.0022045 -0.00455496
2.15539e-06 0.00219114 -0.00458205
-8.65396e-07 0.00218776 -0.00457132
-4.47975e-05 0.00219782 -0.00453406
8.06402e-05 0.00232291 -0.00438022
0.000204416 0.00221893 -0.00418824
0.000214801 0.00188726 -0.00395542
4.86285e-05 0.00171698 -0.00380903
6.60634e-05 0.00171606 -0.00361219
0.000149725 0.00168614 -0.00318121
0.000169545 0.00149064 -0.0027505
0.000172512 0.00125121 -0.00231645
0.000171998 0.000995935 -0.00188274
0.000178989 0.000723799 -0.00144709
0.000146956 0.000400161 -0.000997611
9.10276e-05 0.000244711 -0.000763074
0.000101405 0.000112908 -0.000570484
9.87024e-05 5.13067e-05 -0.000343545
8.59782e-05 2.70297e-05 -0.000194713
7.74448e-05 1.21021e-05 -8.81217e-05
0 0 0
-7.22945e-05 0 0
-7.97006e-05 3.86639e-05 -8.15621e-05
-8.83253e-05 8.12422e-05 -0.000181568
-7.31867e-05 0.000129373 -0.000326479
3.77707e-05 0.000172271 -0.000569798
5.11852e-08 0.000159941 -0.000853112
-3.15211e-05 0.000235044 -0.00119744
-4.96292e-05 0.000340607 -0.00179242
-5.71571e-05 0.000440761 -0.00234069
-6.06669e-05 0.00054274 -0.00288994
-6.12256e-05 0.000644818 -0.00343829
-5.84495e-05 0.000744008 -0.00397171
-5.33662e-05 0.000835824 -0.00446671
-4.90033e-05 0.000876796 -0.00468782
-4.13085e-05 0.000913829 -0.00488742
-2.93233e-05 0.000974695 -0.00521433
-1.6982e-05 0.00101674 -0.00543904
-7.96957e-06 0.00104044 -0.00556509
8.77477e-07 0.00104576 -0.00559315
9.36693e-06 0.00104356 -0.00558079
1.76792e-05 0.00103615 -0.00554096
2.82587e-05 0.00100868 -0.00539376
3.7882e-05 0.000963947 -0.00515388
4.36157e-05 0.000901812 -0.00481988
4.66814e-05 0.000864725 -0.00462005
4.99244e-05 0.000824074 -0.00440082
5.06816e-05 0.000733916 -0.00391524
4.85188e-05 0.000637327 -0.00339624
4.36806e-05 0.00053835 -0.00286481
3.50162e-05 0.000439507 -0.00233254
1.68018e-05 0.000341836 -0.00179888
-8.32933e-06 0.000235757 -0.00121277
-4.10676e-05 0.000152965 -0.000860527
6.96097e-05 0.000160892 -0.000572818
8.51847e-05 0.00011804 -0.00032681
7.69896e-05 7.28399e-05 -0.000181256
6.982e-05 3.42666e-05 -8.1287e-05
0 0 0
-5.29201e-05 0 0
-5.8181e-05 5.27555e-05 -5.98134e-05
-6.36179e-05 0.000110362 -0.000133069
-5.03402e-05 0.000172498 -0.000237489
2.80014e-05 0.000219692 -0.000399812
8.58687e-05 0.000202966 -0.000534449
2.97967e-05 0.000151145 0.000248863
8.17192e-06 0.000112027 0.000435197
1.22686e-06 9.7171e-05 0.000620095
-2.52983e-06 8.99749e-05 0.000809938
-4.92293e-06 8.68792e-05 0.000995096
-6.37415e-06 8.65161e-05 0.0011708
-6.75472e-06 8.80372e-05 0.00133006
-6.71667e-06 8.91938e-05 0.00140011
-6.24294e-06 9.04809e-05 0.00146289
-4.55508e-06 9.30604e-05 0.0015651
-2.28166e-06 9.46408e-05 0.00163625
-4.76711e-07 9.46533e-05 0.0016782
1.28626e-06 9.40219e-05 0.00168885
2.80038e-06 9.15248e-05 0.00168982
4.11991e-06 8.97824e-05 0.00168009
5.17844e-06 8.55029e-05 0.0016398
5.25128e-06 8.08541e-05 0.00156984
4.39914e-06 7.67854e-05 0.00146822
3.56491e-06 7.539e-05 0.0014055
1.95393e-06 7.4537e-05 0.00133535
-8.12626e-07 7.47587e-05 0.00117551
-4.17234e-06 7.79687e-05 0.000998905
-8.57259e-06 8.45091e-05 0.000812703
-1.5718e-05 9.50869e-05 0.000621832
-3.61552e-05 0.000111923 0.000435977
-8.75848e-05 0.000147399 0.000248524
-3.26432e-05 0.000189656 -0.000532418
4.73698e-05 0.000205778 -0.000400205
6.12564e-05 0.00015992 -0.000237474
5.61959e-05 0.000101231 -0.000132794
5.1121e-05 4.80094e-05 -5.96003e-05
0 0 0
2.0268e-08 0 0
2.06409e-08 5.27545e-05 1.83031e-08
2.1631e-08 0.00011036 3.67385e-08
2.39672e-08 0.000172495 5.5275e-08
3.0284e-08 0.000219689 7.34211e-08
-1.2407e-08 0.000202966 8.17856e-08
-1.95865e-08 0.000151149 1.04064e-08
-2.31169e-08 0.000112034 -2.6057e-09
-2.63669e-08 9.71765e-05 -1.39323e-09
-2.78527e-08 8.99782e-05 -7.21258e-10
-2.73211e-08 8.68801e-05 -2.21777e-10
-2.48578e-08 8.65144e-05 2.13046e-10
-2.12983e-08 8.80333e-05 5.69352e-10
-1.83339e-08 8.91889e-05 6.99357e-10
-1.40659e-08 9.04756e-05 7.78103e-10
-8.34857e-09 9.30546e-05 8.55572e-10
-2.49408e-09 9.46346e-05 8.38309e-10
1.8283e-09 9.46471e-05 7.42238e-10
5.94461e-09 9.40158e-05 6.68189e-10
9.47678e-09 9.15191e-05 4.82684e-10
1.26979e-08 8.9777e-05 3.83351e-10
1.66018e-08 8.5498e-05 1.87387e-10
1.95539e-08 8.08501e-05 -3.10368e-11
2.01642e-08 7.67828e-05 -2.8325e-10
1.9428e-08 7.5388e-05 -4.21313e-10
1.92075e-08 7.45351e-05 -4.83926e-10
1.94755e-08 7.47568e-05 -6.10745e-10
1.91041e-08 7.79673e-05 -7.53527e-10
1.79989e-08 8.45083e-05 -8.83726e-10
1.59551e-08 9.50869e-05 -1.0211e-09
1.22275e-08 0.000111924 -1.5323e-09
6.46975e-09 0.000147407 -6.82467e-09
-6.31581e-08 0.00018967 -2.15006e-08
-2.52361e-08 0.000205786 -1.15406e-08
-1.03161e-08 0.000159922 -4.55027e-09
-4.24206e-09 0.000101231 -1.9204e-09
-2.10231e-09 4.80095e-05 -7.50206e-10
0 0 0
5.29595e-05 0 0
5.82211e-05 3.86606e-05 5.98489e-05
6.36602e-05 8.12354e-05 0.00013314
5.03883e-05 0.000129362 0.000237595
-2.79339e-05 0.000172255 0.000399952
-8.58835e-05 0.000159925 0.000534604
-2.9831e-05 0.000235048 -0.00024882
-8.21751e-06 0.000340618 -0.000435183
-1.27991e-06 0.000440769 -0.000620084
2.47357e-06 0.000542744 -0.000809929
4.86775e-06 0.000644817 -0.000995091
6.32392e-06 0.000744004 -0.0011708
6.71193e-06 0.000835816 -0.00133006
6.68077e-06 0.000876786 -0.00140011
6.21587e-06 0.000913819 -0.00146289
4.53939e-06 0.000974685 -0.0015651
2.27775e-06 0.00101673 -0.00163626
4.81598e-07 0.00104043 -0.00167821
-1.27306e-06 0.00104575 -0.00168886
-2.78012e-06 0.00104355 -0.00168983
-4.09328e-06 0.00103614 -0.0016801
-5.14387e-06 0.00100868 -0.00163981
-5.21043e-06 0.000963942 -0.00156986
-4.35713e-06 0.000901811 -0.00146824
-3.5255e-06 0.000864727 -0.00140551
-1.91522e-06 0.000824075 -0.00133537
8.52261e-07 0.000733916 -0.00117552
4.21129e-06 0.000637328 -0.000998917
8.60948e-06 0.000538352 -0.000812716
1.5752e-05 0.00043951 -0.000621844
3.61862e-05 0.000341841 -0.000435991
8.76092e-05 0.000235775 -0.000248547
3.25042e-05 0.000153018 0.000532369
-4.7426e-05 0.000160898 0.000400179
-6.12785e-05 0.000118039 0.000237465
-5.62048e-05 7.28389e-05 0.00013279
-5.11254e-05 3.42663e-05 5.95988e-05
0 0 0
7.23321e-05 0 0
7.97388e-05 1.59524e-05 8.15959e-05
8.83653e-05 3.43823e-05 0.000181635
7.32322e-05 6.13851e-05 0.000326579
-3.77023e-05 0.000124447 0.00056993
-4.17939e-08 0.000257509 0.000853259
3.14939e-05 0.000412401 0.00119757
4.9586e-05 0.000732127 0.00179252
5.71059e-05 0.00100445 0.00234077
6.06125e-05 0.00126252 0.00288999
6.11723e-05 0.00150567 0.00343831
5.84008e-05 0.00170442 0.00397171
5.33246e-05 0.00173514 0.00446669
4.8971e-05 0.00173565 0.00468779
4.12845e-05 0.00190634 0.00488738
2.93102e-05 0.00223689 0.00521428
1.69805e-05 0.00233636 0.00543898
7.97695e-06 0.00220464 0.00556503
-8.61878e-07 0.00219128 0.00559309
-9.34443e-06 0.00218789 0.00558072
-1.76508e-05 0.00219794 0.0055409
-2.82222e-05 0.00232303 0.00539369
-3.78385e-05 0.00221902 0.00515382
-4.357e-05 0.00188731 0.00481982
-4.66426e-05 0.00171701 0.00461999
-4.98856e-05 0.00171608 0.00440076
-5.06411e-05 0.00168613 0.00391519
-4.8479e-05 0.00149061 0.00339619
-4.36429e-05 0.00125114 0.00286476
-3.4981e-05 0.000995841 0.00233249
-1.67641e-05 0.00072368 0.00179884
8.38919e-06 0.000400016 0.00121272
4.08807e-05 0.00024452 0.000860469
-6.96696e-05 0.000112842 0.00057279
-8.52066e-05 5.12889e-05 0.0003268
-7.69982e-05 2.70242e-05 0.000181252
-6.98242e-05 1.21005e-05 8.12856e-05
0 0 0
8.03043e-05 0 0
8.91218e-05 -4.44776e-06 8.82529e-05
0.000102402 -9.46182e-06 0.000194662
0.000105939 -1.33372e-05 0.000342443
9.73697e-05 -5.56062e-06 0.000566068
0.00015755 1.46967e-05 0.00075574
0.000194041 2.88006e-05 0.000988888
0.000188335 4.86017e-05 0.00144462
0.000188659 7.47929e-05 0.00189171
0.00018462 0.000100519 0.00233925
0.000162842 0.000124952 0.00278736
7.587e-05 0.00015195 0.00323041
5.57499e-05 0.000214851 0.0036701
0.000221439 0.000248865 0.00386885
0.000208113 0.000233366 0.00401463
8.02741e-05 0.000197554 0.00424039
-4.79794e-05 0.000205569 0.00441908
-4.72993e-06 0.000258898 0.00455489
-2.14424e-06 0.000264669 0.00458198
8.81878e-07 0.000264601 0.00457124
4.482e-05 0.000258797 0.00453399
-8.06162e-05 0.000205695 0.00438016
-0.00020439 0.000197473 0.00418818
-0.000214774 0.000232266 0.00395536
-4.86014e-05 0.000247227 0.00380898
-6.60376e-05 0.000213365 0.00361214
-0.000149699 0.00015064 0.00318116
-0.00016952 0.000122982 0.00275046
-0.000172488 9.73768e-05 0.00231642
-0.000171975 6.98969e-05 0.00188271
-0.000178965 4.12669e-05 0.00144707
-0.000146942 1.87359e-05 0.000997582
-9.10896e-05 4.13113e-06 0.000763046
-0.000101441 -1.58296e-05 0.000570466
-9.87181e-05 -2.21802e-05 0.000343538
-8.59849e-05 -1.58937e-05 0.00019471
-7.74482e-05 -7.82199e-06 8.81204e-05
0 0 0
7.56826e-05 0 0
8.42215e-05 -1.75431e-05 7.90607e-05
9.9225e-05 -3.75963e-05 0.000171338
0.000115308 -6.16965e-05 0.000291142
0.000140336 -8.85256e-05 0.000453366
0.000188724 -0.000103657 0.000569283
0.000217195 -0.000126982 0.000713505
0.00021801 -0.000182598 0.00101969
0.000217874 -0.000235577 0.0013314
0.000212453 -0.000287683 0.00164698
0.000193051 -0.000337917 0.00196444
0.000141679 -0.000380609 0.00227929
0.00012637 -0.00039864 0.00258663
0.000192798 -0.00040615 0.00272324
0.000174278 -0.000436966 0.00282687
8.97066e-05 -0.000496737 0.00298423
6.19338e-06 -0.000518738 0.00310601
7.22873e-06 -0.000503336 0.00319524
-2.21991e-06 -0.000501221 0.00321415
-1.11494e-05 -0.000499879 0.00320619
-9.11962e-06 -0.000500709 0.00317976
-9.02131e-05 -0.000513746 0.00307726
-0.000171477 -0.000490209 0.00294541
-0.000187063 -0.000430077 0.00278216
-0.000118738 -0.000399473 0.00267783
-0.000131428 -0.000392223 0.00254264
-0.000180228 -0.000375417 0.00224187
-0.000198053 -0.000334899 0.00193599
-0.000202797 -0.000287434 0.00162853
-0.000203164 -0.000238428 0.00132261
-0.000203639 -0.000188585 0.00101893
-0.000178126 -0.000135635 0.00071813
-0.00013316 -0.000112952 0.000574868
-0.000110366 -9.77512e-05 0.000458024
-9.53728e-05 -6.9665e-05 0.000293336
-8.1026e-05 -4.34101e-05 0.000172239
-7.28024e-05 -2.06009e-05 7.9359e-05
0 0 0
5.77222e-05 0 0
6.39704e-05 -2.61095e-05 5.86542e-05
7.53497e-05 -5.54294e-05 0.000125559
8.92868e-05 -9.05521e-05 0.00020873
0.00011136 -0.000132572 0.000314765
0.000143647 -0.000158946 0.000385234
0.000163491 -0.000193621 0.000473069
0.000167178 -0.000272968 0.00066622
0.000168007 -0.000353511 0.000866455
0.000164437 -0.000434197 0.00107082
0.000152448 -0.000512928 0.00127677
0.000125491 -0.000585068 0.00148044
0.00011293 -0.000641582 0.00167648
0.000132549 -0.000667022 0.00176287
0.000115563 -0.000700435 0.00182986
6.82751e-05 -0.000759744 0.00193135
2.16596e-05 -0.000792218 0.0020086
1.11427e-05 -0.00079822 0.00206359
-1.56842e-06 -0.00079972 0.00207552
-1.38626e-05 -0.00079783 0.00207027
-2.35663e-05 -0.000794545 0.0020534
-6.85358e-05 -0.000785373 0.00198969
-0.000113617 -0.000750622 0.00190569
-0.000128393 -0.000690239 0.00180002
-0.000106936 -0.000656844 0.00173243
-0.000117524 -0.000631833 0.00164695
-0.000142789 -0.000577165 0.00145522
-0.000153741 -0.000507786 0.00125736
-0.000156924 -0.000432366 0.00105783
-0.000156356 -0.000355177 0.000859678
-0.00015359 -0.000277934 0.000664716
-0.00013563 -0.000201245 0.000475523
-0.000105657 -0.00016729 0.000388745
-8.52773e-05 -0.000140955 0.000318074
-7.22355e-05 -9.78511e-05 0.000210652
-6.14018e-05 -6.07838e-05 0.000126527
-5.54139e-05 -2.89348e-05 5.90409e-05
0 0 0
3.09945e-05 0 0
3.42054e-05 -3.02641e-05 3.10579e-05
4.0105e-05 -6.38894e-05 6.60251e-05
4.75696e-05 -0.000103691 0.000108491
5.92501e-05 -0.000151317 0.000161074
7.51437e-05 -0.000181111 0.000194983
8.52684e-05 -0.000218941 0.000237214
8.80032e-05 -0.000304974 0.000331322
8.88125e-05 -0.000393979 0.000429656
8.72093e-05 -0.000483926 0.000530432
8.17116e-05 -0.000572292 0.000632034
7.01716e-05 -0.000655075 0.000732246
6.30122e-05 -0.000726126 0.000827989
6.65089e-05 -0.000757963 0.000870007
5.67498e-05 -0.000791467 0.000902884
3.58563e-05 -0.000848441 0.000952701
1.52504e-05 -0.000884105 0.000990406
7.38982e-06 -0.000898723 0.00101694
-7.77792e-07 -0.000901936 0.00102273
-8.72067e-06 -0.000899866 0.00102014
-1.61432e-05 -0.000894703 0.00101189
-3.59307e-05 -0.000876651 0.000981049
-5.57348e-05 -0.000838441 0.000939964
-6.43306e-05 -0.000780099 0.000887989
-5.9773e-05 -0.000746528 0.000854773
-6.58908e-05 -0.000715174 0.000813189
-7.65978e-05 -0.00064619 0.000719565
-8.15874e-05 -0.000566357 0.000622197
-8.30155e-05 -0.000481455 0.000523739
-8.23591e-05 -0.000395102 0.000426008
-8.00925e-05 -0.00030942 0.000330307
-7.08925e-05 -0.000226036 0.000238274
-5.61589e-05 -0.000188953 0.000196653
-4.53588e-05 -0.000159243 0.000162736
-3.83805e-05 -0.00011063 0.000109552
-3.27826e-05 -6.8998e-05 6.66052e-05
-2.97163e-05 -3.29654e-05 3.13045e-05
0 0 0
0 0 0
0 0 0
0 0 0
0 0 0
0 0 0
0 0 0
0 0 0
0 0 0
0 0 0
0 0 0
0 0 0
0 0 0
0 0 0
0 0 0
0 0 0
0 0 0
0 0 0
0 0 0
0 0 0
0 0 0
0 0 0
0 0 0
0 0 0
0 0 0
0 0 0
0 0 0
0 0 0
0 0 0
0 0 0
0 0 0
0 0 0
0 0 0
0 0 0
0 0 0
0 0 0
0 0 0
0 0 0
0 0 0
0 0 0
0 -0.000113375 0
0 -0.000241452 0
0 -0.000397438 0
0 -0.000590535 0
0 -0.000714283 0
0 -0.000868817 0
0 -0.00121537 0
0 -0.00157718 0
0 -0.00194678 0
0 -0.00231683 0
0 -0.002677 0
0 -0.00301254 0
0 -0.00316051 0
0 -0.00328539 0
0 -0.00348142 0
0 -0.00362207 0
0 -0.00371005 0
0 -0.00372935 0
0 -0.00372029 0
0 -0.00369247 0
0 -0.00358959 0
0 -0.00343769 0
0 -0.00323524 0
0 -0.00310991 0
0 -0.00296423 0
0 -0.00263809 0
0 -0.00229069 0
0 -0.00193527 0
0 -0.00158064 0
0 -0.0012326 0
0 -0.000897137 0
0 -0.000745794 0
0 -0.000622348 0
0 -0.000425125 0
0 -0.000261782 0
0 -0.000124111 0
0 0 0
-0.000117332 0 0
-0.00013148 -9.94785e-05 -3.06678e-05
-0.000158373 -0.000214688 -6.58141e-05
-0.000194181 -0.000360931 -0.000109531
-0.000247556 -0.000550687 -0.000164712
-0.00030847 -0.000678258 -0.000200398
-0.000345046 -0.000838904 -0.000244659
-0.000359391 -0.00119256 -0.000344175
-0.000366641 -0.00155583 -0.000451081
-0.000366948 -0.00192388 -0.000564772
-0.000357329 -0.00229174 -0.000684809
-0.000333366 -0.00265002 -0.000809724
-0.000294555 -0.00298323 -0.000936231
-0.000248995 -0.00313111 -0.000990378
-0.000196273 -0.00325923 -0.00102395
-0.000142436 -0.00346255 -0.0010633
-9.13817e-05 -0.00360493 -0.00109413
-4.32128e-05 -0.00368944 -0.00112129
3.2854e-06 -0.0037079 -0.00112643
4.87656e-05 -0.00369889 -0.00112237
9.49428e-05 -0.00367194 -0.00111341
0.000142675 -0.00357253 -0.00107959
0.000192113 -0.00341916 -0.00104335
0.000239635 -0.00321 -0.00100027
0.00027992 -0.00308168 -0.000966131
0.000314173 -0.00293608 -0.000913064
0.000334989 -0.0026121 -0.000790765
0.00034277 -0.00226657 -0.000670722
0.000341925 -0.00191346 -0.000555625
0.000335388 -0.00156067 -0.000446433
0.000322937 -0.00121165 -0.000343235
0.000290275 -0.000869589 -0.000246541
0.000234555 -0.000712183 -0.000203087
0.000184997 -0.000584737 -0.000167308
0.000151241 -0.000390326 -0.000111139
0.000125657 -0.000236148 -6.66819e-05
0.000112143 -0.000110774 -3.10353e-05
0 0 0
-0.000220353 0 0
-0.0002496 -7.07448e-05 -5.78576e-05
-0.000306364 -0.000158171 -0.000125152
-0.000384187 -0.000281625 -0.000210942
-0.000501781 -0.000463162 -0.00032228
-0.000628109 -0.000603632 -0.000396276
-0.000696049 -0.000782521 -0.000488452
-0.000719066 -0.00115128 -0.000693948
-0.000730562 -0.00151329 -0.000913625
-0.000730546 -0.00187345 -0.00114752
-0.000711636 -0.0022321 -0.00139622
-0.000663321 -0.00258163 -0.00165795
-0.0005879 -0.00290583 -0.00192574
-0.000503485 -0.00305142 -0.00204157
-0.000398929 -0.0031837 -0.00211495
-0.000285793 -0.00339875 -0.00220048
-0.000178566 -0.00354391 -0.00226452
-8.40749e-05 -0.00362243 -0.00231887
7.13659e-06 -0.00363959 -0.00232885
9.63479e-05 -0.00363094 -0.00232019
0.000186903 -0.00360561 -0.00230206
0.000287238 -0.00351259 -0.00223348
0.00039123 -0.00335724 -0.00215804
0.000485461 -0.00313775 -0.00206492
0.000559854 -0.00300578 -0.00199059
0.000626298 -0.00286229 -0.0018772
0.000668155 -0.00254657 -0.00161856
0.000683248 -0.00220936 -0.00136733
0.00068202 -0.00186536 -0.00112914
0.000671774 -0.00152081 -0.000904735
0.000652487 -0.00117397 -0.000692703
0.000592686 -0.00081808 -0.000492696
0.000477124 -0.000642553 -0.000401916
0.000367191 -0.000501697 -0.000327471
0.000293321 -0.000314329 -0.000213888
0.000239018 -0.000181783 -0.000126624
0.000210949 -8.30962e-05 -5.84464e-05
0 0 0
-0.000293906 0 0