<?xml version="1.0"?>
<VTKFile type="RectilinearGrid" version="0.1" byte_order="LittleEndian">
<RectilinearGrid WholeExtent="0 37 0 14 0 34">
<Piece Extent="0 37 0 14 0 34">
<PointData>
</PointData>
<CellData>
<DataArray type="Float32" Name="Flussdichte" NumberOfComponents="3" format="ascii">
8.05634e-06 7.4949e-06 -1.55512e-05
2.22494e-05 8.52611e-06 -1.46629e-05
3.09054e-05 1.05067e-05 -1.30258e-05
3.11909e-05 1.31524e-05 -1.09187e-05
2.60302e-05 1.51388e-05 -9.28485e-06
1.90883e-05 1.62863e-05 -8.25644e-06
4.33223e-06 1.76095e-05 -6.86833e-06
-1.89496e-05 1.81287e-05 -5.58803e-06
-4.44303e-05 1.78298e-05 -4.8899e-06
-6.98057e-05 1.71591e-05 -4.72362e-06
-9.35958e-05 1.6386e-05 -5.03138e-06
-0.000114831 1.56315e-05 -5.75052e-06
-0.000128999 1.511e-05 -6.5368e-06
-0.000137114 1.47786e-05 -7.12246e-06
-0.000147177 1.43059e-05 -8.07027e-06
-0.000157726 1.37356e-05 -9.42252e-06
-0.000164511 1.32112e-05 -1.07395e-05
-0.000167588 1.28397e-05 -1.16289e-05
-0.000168216 1.24758e-05 -1.24535e-05
-0.000167735 1.21241e-05 -1.31292e-05
-0.000165284 1.17826e-05 -1.37311e-05
-0.000160361 1.13739e-05 -1.43488e-05
-0.000153638 1.10663e-05 -1.48142e-05
-0.000147838 1.09721e-05 -1.50761e-05
-0.000143659 1.09728e-05 -1.52278e-05
-0.000137191 1.10867e-05 -1.54274e-05
-0.000128805 1.16012e-05 -1.5646e-05
-0.000121403 1.25057e-05 -1.58633e-05
-0.000115603 1.37022e-05 -1.61447e-05
-0.000111442 1.48642e-05 -1.65828e-05
-0.000107785 1.53591e-05 -1.72973e-05
-0.000104126 1.46753e-05 -1.81157e-05
-9.99711e-05 1.38711e-05 -1.87409e-05
-9.00425e-05 1.22643e-05 -1.97581e-05
-7.1282e-05 9.83019e-06 -2.10969e-05
-4.57985e-05 7.91849e-06 -2.21353e-05
-1.57908e-05 6.90437e-06 -2.26952e-05
9.08755e-06 2.0749e-05 -1.48467e-05
2.52612e-05 2.37694e-05 -1.38033e-05
3.55316e-05 2.96772e-05 -1.18483e-05
3.64852e-05 3.78118e-05 -9.27621e-06
3.09737e-05 4.41153e-05 -7.27655e-06
2.31475e-05 4.77191e-05 -6.05525e-06
6.61573e-06 5.16981e-05 -4.49309e-06
-1.87292e-05 5.28526e-05 -3.23626e-06
-4.53999e-05 5.16136e-05 -2.64207e-06
-7.12496e-05 4.9432e-05 -2.5759e-06
-9.51234e-05 4.70676e-05 -2.95963e-06
-0.000116281 4.48198e-05 -3.73503e-06
-0.000130357 4.3283e-05 -4.55495e-06
-0.000138407 4.23093e-05 -5.16073e-06
-0.000148378 4.09228e-05 -6.13538e-06
-0.000158821 3.92527e-05 -7.51427e-06
-0.000165531 3.77163e-05 -8.85114e-06
-0.000168569 3.66246e-05 -9.75481e-06
-0.00016917 3.5553e-05 -1.05956e-05
-0.00016866 3.45113e-05 -1.1295e-05
-0.000166149 3.34957e-05 -1.19256e-05
-0.000161077 3.22679e-05 -1.25959e-05
-0.000154072 3.13268e-05 -1.31242e-05
-0.000147963 3.10182e-05 -1.34318e-05
-0.000143506 3.10003e-05 -1.36103e-05
-0.000136525 3.13107e-05 -1.38407e-05
-0.000127386 3.28281e-05 -1.40606e-05
-0.000119302 3.55853e-05 -1.42237e-05
-0.000113244 3.93834e-05 -1.43868e-05
-0.000109785 4.33363e-05 -1.46593e-05
-0.000108202 4.54413e-05 -1.52547e-05
-0.000106646 4.34911e-05 -1.61879e-05
-0.000103722 4.0924e-05 -1.69834e-05
-9.4619e-05 3.5681e-05 -1.83544e-05
-7.56279e-05 2.8024e-05 -2.01528e-05
-4.87243e-05 2.22185e-05 -2.14959e-05
-1.68049e-05 1.92032e-05 -2.21994e-05
1.10768e-05 2.90117e-05 -1.35804e-05
3.11777e-05 3.36775e-05 -1.22149e-05
4.49478e-05 4.31482e-05 -9.5531e-06
4.77301e-05 5.71026e-05 -5.82003e-06
4.16425e-05 6.89655e-05 -2.7646e-06
3.16013e-05 7.57079e-05 -1.0077e-06
1.0792e-05 8.21961e-05 8.73319e-07
-1.90342e-05 8.2532e-05 1.84981e-06
-4.78508e-05 7.9368e-05 2.08209e-06
-7.43517e-05 7.52902e-05 1.8738e-06
-9.82079e-05 7.1293e-05 1.30817e-06
-0.000119128 6.76459e-05 4.13139e-07
-0.000132995 6.51855e-05 -4.69749e-07
-0.00014091 6.36306e-05 -1.11052e-06
-0.000150696 6.14187e-05 -2.128e-06
-0.000160933 5.87539e-05 -3.54021e-06
-0.000167503 5.62978e-05 -4.89692e-06
-0.000170472 5.45454e-05 -5.81811e-06
-0.000171033 5.28194e-05 -6.68256e-06
-0.000170479 5.11264e-05 -7.42651e-06
-0.000167866 4.94652e-05 -8.11394e-06
-0.00016253 4.74206e-05 -8.89423e-06
-0.000154991 4.57981e-05 -9.5548e-06
-0.000148286 4.51944e-05 -9.95771e-06
-0.000143281 4.50909e-05 -1.01903e-05
-0.00013526 4.54827e-05 -1.04789e-05
-0.000124531 4.78493e-05 -1.06801e-05
-0.000114847 5.24444e-05 -1.06836e-05
-0.000107852 5.92657e-05 -1.05008e-05
-0.000105384 6.72965e-05 -1.0223e-05
-0.00010828 7.31681e-05 -1.02368e-05
-0.000111861 7.05753e-05 -1.13162e-05
-0.000112096 6.55803e-05 -1.26312e-05
-0.00010469 5.51443e-05 -1.51382e-05
-8.47446e-05 4.14608e-05 -1.81916e-05
-5.46193e-05 3.18575e-05 -2.02646e-05
-1.88061e-05 2.7077e-05 -2.12855e-05
1.37534e-05 2.97997e-05 -1.20379e-05
3.93978e-05 3.51665e-05 -1.01892e-05
5.89567e-05 4.66231e-05 -6.33569e-06
6.62568e-05 6.5431e-05 -1.76868e-07
6.02758e-05 8.52638e-05 5.9405e-06
4.52832e-05 9.79235e-05 9.3855e-06
1.56025e-05 0.000105326 1.11899e-05
-2.15574e-05 0.000101694 1.07809e-05
-5.26416e-05 9.53814e-05 1.00126e-05
-7.93245e-05 8.92891e-05 9.20295e-06
-0.000102768 8.3923e-05 8.28554e-06
-0.000123209 7.91876e-05 7.18284e-06
-0.000136747 7.59854e-05 6.20603e-06
-0.000144466 7.39515e-05 5.51865e-06
-0.000153992 7.10421e-05 4.45283e-06
-0.000163942 6.75072e-05 3.02487e-06
-0.000170323 6.42362e-05 1.67265e-06
-0.000173206 6.18972e-05 7.43379e-07
-0.000173728 5.95897e-05 -1.43164e-07
-0.000173132 5.73117e-05 -9.50379e-07
-0.000170408 5.50623e-05 -1.72356e-06
-0.000164745 5.22313e-05 -2.67607e-06
-0.000156499 4.98703e-05 -3.54242e-06
-0.000148974 4.88296e-05 -4.08702e-06
-0.00014319 4.85077e-05 -4.39493e-06
-0.000133636 4.87214e-05 -4.75158e-06
-0.000120425 5.14381e-05 -4.85685e-06
-0.000107885 5.73359e-05 -4.48229e-06
-9.83919e-05 6.70388e-05 -3.48708e-06
-9.58823e-05 8.04657e-05 -1.70902e-06
-0.000105787 9.43892e-05 5.79586e-07
-0.000120093 9.42904e-05 2.47409e-07
-0.000127627 8.40306e-05 -2.92839e-06
-0.000122217 6.519e-05 -9.168e-06
-9.89146e-05 4.58204e-05 -1.51556e-05
-6.31081e-05 3.3767e-05 -1.85891e-05
-2.15855e-05 2.80996e-05 -2.01287e-05
1.57711e-05 2.56905e-05 -1.09836e-05
4.58503e-05 3.06779e-05 -8.73449e-06
7.11484e-05 4.16646e-05 -3.73747e-06
8.63005e-05 6.1086e-05 5.61748e-06
8.51231e-05 8.64007e-05 1.89767e-05
6.1414e-05 0.00011099 2.93539e-05
1.66732e-05 0.000114429 2.63889e-05
-2.71235e-05 0.00010537 2.2229e-05
-5.83523e-05 9.65935e-05 1.98047e-05
-8.41887e-05 8.94794e-05 1.81616e-05
-0.000106924 8.35867e-05 1.6775e-05
-0.000126902 7.8399e-05 1.53985e-05
-0.000140187 7.48015e-05 1.43049e-05
-0.000147759 7.24861e-05 1.35629e-05
-0.000157081 6.91359e-05 1.24462e-05
-0.000166789 6.50094e-05 1.10144e-05
-0.000173 6.1177e-05 9.67897e-06
-0.000175802 5.84437e-05 8.74482e-06
-0.000176293 5.57508e-05 7.83613e-06
-0.000175669 5.30937e-05 6.96029e-06
-0.000172874 5.04609e-05 6.09518e-06
-0.000166978 4.70898e-05 4.96607e-06
-0.000158179 4.41511e-05 3.90283e-06
-0.000149981 4.26695e-05 3.24045e-06
-0.000143527 4.20664e-05 2.88174e-06
-0.000132602 4.18982e-05 2.51072e-06
-0.000117043 4.43086e-05 2.63032e-06
-0.000101406 5.03332e-05 3.59662e-06
-8.81393e-05 6.11847e-05 5.80216e-06
-8.24955e-05 7.82292e-05 1.01084e-05
-9.73129e-05 0.000100907 1.82142e-05
-0.000129407 0.000109485 2.57105e-05
-0.000150209 8.74871e-05 1.40849e-05
-0.00014244 6.23013e-05 -2.04531e-06
-0.000111854 4.16589e-05 -1.23974e-05
-7.00321e-05 2.98004e-05 -1.72921e-05
-2.37515e-05 2.44189e-05 -1.93037e-05
1.69196e-05 2.00365e-05 -1.0399e-05
4.95356e-05 2.40065e-05 -7.92718e-06
7.82246e-05 3.26938e-05 -2.3035e-06
9.95252e-05 4.75767e-05 8.93099e-06
0.000110024 6.54013e-05 2.93199e-05
7.75417e-05 8.23941e-05 0.000133921
1.37229e-05 8.23146e-05 9.33563e-05
-3.23303e-05 7.4428e-05 7.3988e-05
-6.24906e-05 6.77013e-05 6.50363e-05
-8.74493e-05 6.24931e-05 5.95495e-05
-0.000109693 5.82323e-05 5.51744e-05
-0.000129432 5.44531e-05 5.09697e-05
-0.000142608 5.17914e-05 4.76825e-05
-0.000150112 5.00658e-05 4.54653e-05
-0.000159318 4.7554e-05 4.21511e-05
-0.00016887 4.44366e-05 3.79583e-05
-0.000174954 4.15356e-05 3.40715e-05
-0.000177689 3.94712e-05 3.13395e-05
-0.00017815 3.74408e-05 2.86654e-05
-0.000177504 3.54439e-05 2.60388e-05
-0.000174671 3.3466e-05 2.34164e-05
-0.000168644 3.0925e-05 1.99181e-05
-0.000159516 2.86803e-05 1.65586e-05
-0.000150901 2.75015e-05 1.44289e-05
-0.000144018 2.69883e-05 1.3267e-05
-0.000132198 2.67438e-05 1.20573e-05
-0.00011508 2.83108e-05 1.2429e-05
-9.72876e-05 3.25079e-05 1.5561e-05
-8.10264e-05 4.03257e-05 2.28804e-05
-7.15587e-05 5.31067e-05 3.80604e-05
-8.59047e-05 7.1393e-05 7.20537e-05
-0.000139477 8.13216e-05 0.000139472
-0.000173943 6.6547e-05 2.94735e-05
-0.00015607 4.88952e-05 2.37635e-06
-0.000119478 3.29162e-05 -1.08129e-05
-7.40361e-05 2.34403e-05 -1.65566e-05
-2.49982e-05 1.91159e-05 -1.88401e-05
1.81743e-05 8.37062e-06 -9.76879e-06
5.35005e-05 1.00437e-05 -7.07377e-06
8.52879e-05 1.36582e-05 -9.44398e-07
0.000108675 1.94643e-05 1.07414e-05
0.000115987 2.42645e-05 2.71661e-05
7.87598e-05 2.50451e-05 9.6635e-05
1.21538e-05 2.50987e-05 5.59299e-05
-3.54802e-05 2.2938e-05 3.97644e-05
-6.52342e-05 2.08993e-05 3.38496e-05
-8.96601e-05 1.92798e-05 3.07781e-05
-0.000111569 1.79516e-05 2.8385e-05
-0.000131133 1.67788e-05 2.59312e-05
-0.000144226 1.59577e-05 2.38703e-05
-0.000151683 1.54264e-05 2.24467e-05
-0.000160812 1.46537e-05 2.02868e-05
-0.000170263 1.36935e-05 1.75288e-05
-0.000176264 1.27982e-05 1.49797e-05
-0.000178954 1.21608e-05 1.32001e-05
-0.000179391 1.15342e-05 1.14621e-05
-0.000178727 1.09197e-05 9.75326e-06
-0.00017586 1.03124e-05 8.0378e-06
-0.000169734 9.53697e-06 5.69709e-06
-0.000160373 8.85889e-06 3.34964e-06
-0.00015147 8.51032e-06 1.74007e-06
-0.000144296 8.36305e-06 7.97906e-07
-0.000131874 8.30512e-06 -3.25421e-07
-0.000113702 8.81445e-06 -7.13711e-07
-9.44545e-05 1.01423e-05 4.37243e-07
-7.62467e-05 1.25914e-05 4.10356e-06
-6.46634e-05 1.65147e-05 1.34353e-05
-7.93737e-05 2.17841e-05 3.95919e-05
-0.000136605 2.43606e-05 0.000103242
-0.000178156 2.45535e-05 2.88059e-05
-0.000165261 2.00432e-05 5.05774e-06
-0.000127134 1.37953e-05 -9.28961e-06
-7.83803e-05 9.83289e-06 -1.57716e-05
-2.63714e-05 8.00155e-06 -1.83361e-05
1.81745e-05 -8.43976e-06 -9.76967e-06
5.35015e-05 -1.01123e-05 -7.07458e-06
8.52908e-05 -1.37247e-05 -9.44877e-07
0.000108682 -1.9525e-05 1.07421e-05
0.000115997 -2.43148e-05 2.71698e-05
7.87683e-05 -2.50851e-05 9.66506e-05
1.21567e-05 -2.51331e-05 5.59419e-05
-3.54797e-05 -2.29714e-05 3.97756e-05
-6.52342e-05 -2.0933e-05 3.38607e-05
-8.96601e-05 -1.93137e-05 3.07892e-05
-0.000111569 -1.7985e-05 2.8396e-05
-0.000131133 -1.68109e-05 2.59417e-05
-0.000144225 -1.59882e-05 2.38803e-05
-0.000151682 -1.54557e-05 2.24564e-05
-0.000160811 -1.46811e-05 2.02958e-05
-0.000170262 -1.37182e-05 1.75369e-05
-0.000176263 -1.28204e-05 1.4987e-05
-0.000178953 -1.21813e-05 1.3207e-05
-0.000179391 -1.15533e-05 1.14684e-05
-0.000178726 -1.09378e-05 9.75929e-06
-0.00017586 -1.03297e-05 8.04358e-06
-0.000169734 -9.55398e-06 5.70275e-06
-0.000160373 -8.87614e-06 3.35537e-06
-0.00015147 -8.52813e-06 1.74598e-06
-0.000144297 -8.38132e-06 8.03962e-07
-0.000131874 -8.32422e-06 -3.19101e-07
-0.000113702 -8.83483e-06 -7.0697e-07
-9.4455e-05 -1.0164e-05 4.44425e-07
-7.62472e-05 -1.26145e-05 4.1112e-06
-6.46644e-05 -1.65393e-05 1.34436e-05
-7.93769e-05 -2.18115e-05 3.96015e-05
-0.000136614 -2.43943e-05 0.000103255
-0.000178166 -2.45973e-05 2.8809e-05
-0.000165268 -2.00981e-05 5.05818e-06
-0.000127137 -1.38575e-05 -9.29034e-06
-7.83818e-05 -9.89849e-06 -1.57726e-05
-2.63718e-05 -8.06841e-06 -1.83372e-05
1.69199e-05 -2.0104e-05 -1.04012e-05
4.95371e-05 -2.40742e-05 -7.92932e-06
7.82291e-05 -3.27615e-05 -2.30512e-06
9.95367e-05 -4.76435e-05 8.9318e-06
0.000110044 -6.54669e-05 2.93287e-05
7.75585e-05 -8.24604e-05 0.000133973
1.37278e-05 -8.23797e-05 9.34014e-05
-3.233e-05 -7.44937e-05 7.4032e-05
-6.2491e-05 -6.77685e-05 6.50808e-05
-8.74491e-05 -6.25609e-05 5.95943e-05
-0.000109692 -5.82991e-05 5.52186e-05
-0.00012943 -5.45172e-05 5.1012e-05
-0.000142605 -5.18523e-05 4.77227e-05
-0.000150109 -5.01244e-05 4.55041e-05
-0.000159315 -4.76087e-05 4.21873e-05
-0.000168867 -4.44857e-05 3.7991e-05
-0.000174951 -4.15796e-05 3.41007e-05
-0.000177687 -3.95119e-05 3.13667e-05
-0.000178148 -3.74786e-05 2.86906e-05
-0.000177503 -3.54797e-05 2.60627e-05
-0.00017467 -3.35003e-05 2.34393e-05
-0.000168644 -3.09586e-05 1.99405e-05
-0.000159517 -2.87145e-05 1.65813e-05
-0.000150902 -2.75368e-05 1.44524e-05
-0.000144019 -2.70246e-05 1.32911e-05
-0.0001322 -2.67817e-05 1.20825e-05
-0.000115082 -2.83513e-05 1.24559e-05
-9.72894e-05 -3.25512e-05 1.55897e-05
-8.10283e-05 -4.03715e-05 2.29109e-05
-7.15615e-05 -5.3155e-05 3.80928e-05
-8.59115e-05 -7.14445e-05 7.20895e-05
-0.000139495 -8.13768e-05 0.000139516
-0.000173964 -6.66033e-05 2.94808e-05
-0.000156083 -4.89549e-05 2.37643e-06
-0.000119485 -3.29791e-05 -1.08151e-05
-7.40389e-05 -2.35048e-05 -1.65593e-05
-2.4999e-05 -1.91811e-05 -1.88429e-05
1.57712e-05 -2.57556e-05 -1.09867e-05
4.58513e-05 -3.07438e-05 -8.73757e-06
7.11522e-05 -4.17323e-05 -3.74014e-06
8.631e-05 -6.11571e-05 5.61688e-06
8.51372e-05 -8.64783e-05 1.89818e-05
6.14253e-05 -0.000111076 2.93654e-05
1.66772e-05 -0.000114518 2.64012e-05
-2.71242e-05 -0.000105463 2.22411e-05
-5.83534e-05 -9.66892e-05 1.98167e-05
-8.41884e-05 -8.95763e-05 1.81736e-05
-0.000106922 -8.36824e-05 1.67867e-05
-0.000126897 -7.84907e-05 1.54098e-05
-0.000140181 -7.48886e-05 1.43159e-05
-0.000147752 -7.25697e-05 1.35735e-05
-0.000157074 -6.92138e-05 1.24562e-05
-0.000166782 -6.50793e-05 1.10237e-05
-0.000172994 -6.12395e-05 9.68744e-06
-0.000175797 -5.85014e-05 8.75276e-06
-0.000176288 -5.58044e-05 7.84359e-06
-0.000175666 -5.31444e-05 6.9674e-06
-0.000172873 -5.05095e-05 6.10202e-06
-0.000166978 -4.71374e-05 4.97275e-06
-0.000158181 -4.41995e-05 3.90953e-06
-0.000149984 -4.27195e-05 3.24729e-06
-0.00014353 -4.21179e-05 2.8887e-06
-0.000132606 -4.19521e-05 2.51789e-06
-0.000117047 -4.43664e-05 2.63786e-06
-0.00010141 -5.03948e-05 3.60455e-06
-8.81428e-05 -6.12498e-05 5.81052e-06
-8.25e-05 -7.82974e-05 1.01173e-05
-9.73214e-05 -0.000100978 1.82239e-05
-0.000129422 -0.000109557 2.57197e-05
-0.000150226 -8.75532e-05 1.40886e-05
-0.000142453 -6.23643e-05 -2.04674e-06
-0.000111861 -4.17214e-05 -1.24008e-05
-7.00352e-05 -2.98629e-05 -1.72959e-05
-2.37523e-05 -2.44815e-05 -1.93076e-05
1.37531e-05 -2.98586e-05 -1.20423e-05
3.93974e-05 -3.5227e-05 -1.01937e-05
5.89576e-05 -4.6687e-05 -6.34026e-06
6.62601e-05 -6.55012e-05 -1.80725e-07
6.02803e-05 -8.53422e-05 5.93836e-06
4.52862e-05 -9.80082e-05 9.38458e-06
1.56018e-05 -0.000105418 1.11895e-05
-2.15609e-05 -0.000101791 1.07796e-05
-5.26445e-05 -9.54822e-05 1.00104e-05
-7.93243e-05 -8.93916e-05 9.20002e-06
-0.000102763 -8.40243e-05 8.28245e-06
-0.0001232 -7.92848e-05 7.18019e-06
-0.000136736 -7.60777e-05 6.20398e-06
-0.000144453 -7.40401e-05 5.51705e-06
-0.000153979 -7.11245e-05 4.45193e-06
-0.000163928 -6.75812e-05 3.02479e-06
-0.000170311 -6.43021e-05 1.67322e-06
-0.000173196 -6.19581e-05 7.44261e-07
-0.00017372 -5.96462e-05 -1.42038e-07
-0.000173126 -5.73652e-05 -9.49154e-07
-0.000170405 -5.51135e-05 -1.7223e-06
-0.000164744 -5.22815e-05 -2.67492e-06
-0.000156502 -4.99213e-05 -3.54151e-06
-0.000148979 -4.88824e-05 -4.08639e-06
-0.000143196 -4.85621e-05 -4.39451e-06
-0.000133642 -4.87784e-05 -4.75152e-06
-0.000120431 -5.14991e-05 -4.8573e-06
-0.000107892 -5.74009e-05 -4.48319e-06
-9.83979e-05 -6.71071e-05 -3.4882e-06
-9.58886e-05 -8.05364e-05 -1.71008e-06
-0.000105796 -9.44607e-05 5.78666e-07
-0.000120105 -9.43598e-05 2.45786e-07
-0.000127638 -8.40966e-05 -2.93127e-06
-0.000122227 -6.52515e-05 -9.17264e-06
-9.89204e-05 -4.58789e-05 -1.51611e-05
-6.31108e-05 -3.3824e-05 -1.85946e-05
-2.15862e-05 -2.8156e-05 -2.01341e-05
1.10756e-05 -2.90586e-05 -1.35864e-05
3.11743e-05 -3.37263e-05 -1.22213e-05
4.49429e-05 -4.3201e-05 -9.5602e-06
4.77244e-05 -5.7162e-05 -5.82793e-06
4.16361e-05 -6.90319e-05 -2.77311e-06
3.15939e-05 -7.5779e-05 -1.01673e-06
1.07831e-05 -8.22736e-05 8.63194e-07
-1.90433e-05 -8.26157e-05 1.8376e-06
-4.78569e-05 -7.94558e-05 2.06789e-06
-7.43519e-05 -7.53798e-05 1.85834e-06
-9.82009e-05 -7.13817e-05 1.2926e-06
-0.000119114 -6.77312e-05 3.98718e-07
-0.000132977 -6.52665e-05 -4.82651e-07
-0.00014089 -6.37084e-05 -1.12229e-06
-0.000150675 -6.14912e-05 -2.13799e-06
-0.000160911 -5.8819e-05 -3.54793e-06
-0.000167484 -5.63559e-05 -4.90273e-06
-0.000170456 -5.45991e-05 -5.82287e-06
-0.00017102 -5.28692e-05 -6.68645e-06
-0.000170469 -5.11735e-05 -7.42992e-06
-0.000167861 -4.95103e-05 -8.11705e-06
-0.00016253 -4.74648e-05 -8.89742e-06
-0.000154995 -4.58431e-05 -9.55849e-06
-0.000148293 -4.52409e-05 -9.96207e-06
-0.000143289 -4.51387e-05 -1.01951e-05
-0.000135269 -4.55328e-05 -1.04847e-05
-0.000124541 -4.79027e-05 -1.06871e-05
-0.000114857 -5.25012e-05 -1.06918e-05
-0.00010786 -5.9325e-05 -1.05097e-05
-0.000105391 -6.73571e-05 -1.02321e-05
-0.000108286 -7.32281e-05 -1.02456e-05
-0.000111867 -7.06328e-05 -1.13249e-05
-0.000112102 -6.56355e-05 -1.26398e-05
-0.000104695 -5.51958e-05 -1.51467e-05
-8.47473e-05 -4.15087e-05 -1.81997e-05
-5.46204e-05 -3.19032e-05 -2.02722e-05
-1.88064e-05 -2.71216e-05 -2.12928e-05
9.0854e-06 -2.07793e-05 -1.48539e-05
2.5255e-05 -2.38012e-05 -1.38111e-05
3.55219e-05 -2.97119e-05 -1.18573e-05
3.64726e-05 -3.78511e-05 -9.28689e-06
3.09595e-05 -4.4159e-05 -7.28888e-06
2.31324e-05 -4.77658e-05 -6.0688e-06
6.60025e-06 -5.17491e-05 -4.50866e-06
-1.87431e-05 -5.29079e-05 -3.25479e-06
-4.54087e-05 -5.16718e-05 -2.66322e-06
-7.12503e-05 -4.94915e-05 -2.59865e-06
-9.51145e-05 -4.71266e-05 -2.98245e-06
-0.000116263 -4.48766e-05 -3.75632e-06
-0.000130334 -4.3337e-05 -4.57422e-06
-0.000138381 -4.23612e-05 -5.17849e-06
-0.00014835 -4.09713e-05 -6.15074e-06
-0.000158793 -3.92964e-05 -7.52651e-06
-0.000165506 -3.77553e-05 -8.86071e-06
-0.000168547 -3.66607e-05 -9.76288e-06
-0.000169153 -3.55865e-05 -1.06024e-05
-0.000168648 -3.4543e-05 -1.13011e-05
-0.000166142 -3.3526e-05 -1.19312e-05
-0.000161077 -3.22976e-05 -1.26017e-05
-0.000154077 -3.13569e-05 -1.31305e-05
-0.000147972 -3.10493e-05 -1.34391e-05
-0.000143517 -3.10323e-05 -1.36183e-05
-0.000136537 -3.13442e-05 -1.38499e-05
-0.0001274 -3.28638e-05 -1.40715e-05
-0.000119314 -3.56231e-05 -1.42361e-05
-0.000113254 -3.94226e-05 -1.44002e-05
-0.000109792 -4.33761e-05 -1.4673e-05
-0.000108206 -4.54804e-05 -1.52678e-05
-0.000106649 -4.35285e-05 -1.62004e-05
-0.000103724 -4.096e-05 -1.69953e-05
-9.46202e-05 -3.57148e-05 -1.83654e-05
-7.56278e-05 -2.80551e-05 -2.01628e-05
-4.87238e-05 -2.2248e-05 -2.1505e-05
-1.68047e-05 -1.92318e-05 -2.2208e-05
8.05367e-06 -7.50539e-06 -1.55591e-05
2.22416e-05 -8.53712e-06 -1.46714e-05
3.0893e-05 -1.05187e-05 -1.30358e-05
3.11747e-05 -1.31661e-05 -1.09308e-05
2.60119e-05 -1.5154e-05 -9.29896e-06
1.90692e-05 -1.63025e-05 -8.27206e-06
4.31324e-06 -1.76271e-05 -6.88636e-06
-1.89661e-05 -1.81479e-05 -5.60941e-06
-4.44405e-05 -1.78501e-05 -4.91417e-06
-6.98067e-05 -1.71798e-05 -4.74961e-06
-9.3586e-05 -1.64065e-05 -5.05745e-06
-0.000114811 -1.56513e-05 -5.77491e-06
-0.000128973 -1.51289e-05 -6.55897e-06
-0.000137085 -1.47968e-05 -7.14296e-06
-0.000147146 -1.43229e-05 -8.08811e-06
-0.000157695 -1.37509e-05 -9.43686e-06
-0.000164483 -1.32249e-05 -1.07509e-05
-0.000167564 -1.28523e-05 -1.16385e-05
-0.000168197 -1.24875e-05 -1.24617e-05
-0.000167722 -1.21353e-05 -1.31366e-05
-0.000165277 -1.17933e-05 -1.37379e-05
-0.000160361 -1.13844e-05 -1.43557e-05
-0.000153644 -1.10769e-05 -1.48219e-05
-0.000147849 -1.09831e-05 -1.50847e-05
-0.000143671 -1.09841e-05 -1.52372e-05
-0.000137205 -1.10984e-05 -1.54382e-05
-0.00012882 -1.16136e-05 -1.56587e-05
-0.000121416 -1.25188e-05 -1.58777e-05
-0.000115613 -1.37159e-05 -1.61601e-05
-0.000111448 -1.4878e-05 -1.65984e-05
-0.000107788 -1.53726e-05 -1.73124e-05
-0.000104128 -1.46882e-05 -1.81298e-05
-9.99715e-05 -1.38836e-05 -1.87543e-05
-9.00417e-05 -1.2276e-05 -1.97704e-05
-7.12805e-05 -9.84099e-06 -2.11079e-05
-4.57971e-05 -7.92868e-06 -2.21452e-05
-1.57903e-05 -6.91426e-06 -2.27045e-05
9.68498e-06 8.78653e-06 -8.03598e-05
2.68794e-05 1.0102e-05 -7.62895e-05
3.77696e-05 1.26655e-05 -6.8842e-05
3.90478e-05 1.61637e-05 -5.93332e-05
3.37949e-05 1.88207e-05 -5.19576e-05
2.62523e-05 2.03218e-05 -4.72774e-05
1.00726e-05 2.19641e-05 -4.08753e-05
-1.53225e-05 2.24403e-05 -3.47288e-05
-4.28455e-05 2.19509e-05 -3.12088e-05
-7.00651e-05 2.10966e-05 -3.02259e-05
-9.54785e-05 2.01842e-05 -3.15972e-05
-0.000118072 1.93266e-05 -3.50797e-05
-0.000133068 1.87434e-05 -3.8992e-05
-0.000141578 1.83751e-05 -4.1925e-05
-0.000151973 1.78532e-05 -4.66881e-05
-0.00016262 1.72341e-05 -5.34733e-05
-0.000169099 1.66733e-05 -5.99913e-05
-0.000171778 1.62754e-05 -6.42737e-05
-0.000171883 1.58819e-05 -6.81701e-05
-0.000170858 1.54868e-05 -7.11988e-05
-0.000167888 1.50927e-05 -7.38088e-05
-0.000162347 1.45875e-05 -7.62748e-05
-0.000155132 1.41648e-05 -7.79647e-05
-0.000149035 1.39866e-05 -7.88397e-05
-0.000144703 1.39382e-05 -7.93346e-05
-0.00013808 1.39957e-05 -7.9985e-05
-0.000129604 1.45078e-05 -8.07719e-05
-0.000122317 1.55117e-05 -8.17318e-05
-0.000116922 1.69252e-05 -8.31705e-05
-0.000113555 1.83905e-05 -8.54379e-05
-0.000111095 1.9104e-05 -8.88662e-05
-0.000108419 1.82095e-05 -9.24077e-05
-0.00010475 1.70931e-05 -9.50142e-05
-9.49835e-05 1.48378e-05 -9.9152e-05
-7.56403e-05 1.15611e-05 -0.000104537
-4.87286e-05 9.09073e-06 -0.000108763
-1.68173e-05 7.81333e-06 -0.000111072
1.10005e-05 2.43622e-05 -7.71322e-05
3.07583e-05 2.82574e-05 -7.24354e-05
4.38313e-05 3.60439e-05 -6.37725e-05
4.60886e-05 4.71594e-05 -5.26159e-05
4.03399e-05 5.60691e-05 -4.4011e-05
3.14442e-05 6.10085e-05 -3.8656e-05
1.27385e-05 6.58912e-05 -3.15528e-05
-1.53357e-05 6.64886e-05 -2.52308e-05
-4.41892e-05 6.43956e-05 -2.18548e-05
-7.18317e-05 6.15272e-05 -2.10756e-05
-9.72485e-05 5.86901e-05 -2.26329e-05
-0.000119707 5.61199e-05 -2.63028e-05
-0.000134582 5.44059e-05 -3.03824e-05
-0.00014301 5.33312e-05 -3.34334e-05
-0.000153288 5.18169e-05 -3.83761e-05
-0.0001638 5.0037e-05 -4.53716e-05
-0.000170191 4.84277e-05 -5.20501e-05
-0.000172833 4.72777e-05 -5.64267e-05
-0.000172935 4.6133e-05 -6.04146e-05
-0.000171911 4.49662e-05 -6.35538e-05
-0.000168919 4.37938e-05 -6.62934e-05
-0.000163275 4.22679e-05 -6.90037e-05
-0.000155792 4.09691e-05 -7.10105e-05
-0.000149369 4.04018e-05 -7.21488e-05
-0.000144723 4.02357e-05 -7.28134e-05
-0.000137491 4.0383e-05 -7.36944e-05
-0.000128088 4.19323e-05 -7.46704e-05
-0.0001199 4.50815e-05 -7.56683e-05
-0.000114043 4.97306e-05 -7.70066e-05
-0.000111376 5.49959e-05 -7.91179e-05
-0.000111574 5.83856e-05 -8.25606e-05
-0.000111844 5.59568e-05 -8.65471e-05
-0.00010999 5.21251e-05 -8.96256e-05
-0.000101267 4.41507e-05 -9.46583e-05
-8.13874e-05 3.33504e-05 -0.000101244
-5.24764e-05 2.56481e-05 -0.000106335
-1.80947e-05 2.17876e-05 -0.00010908
1.35802e-05 3.41612e-05 -7.14011e-05
3.85611e-05 4.03034e-05 -6.54783e-05
5.66717e-05 5.32546e-05 -5.43273e-05
6.20429e-05 7.37847e-05 -3.95184e-05
5.55533e-05 9.31968e-05 -2.79247e-05
4.26413e-05 0.000104016 -2.10026e-05
1.71803e-05 0.000110948 -1.2638e-05
-1.68181e-05 0.00010823 -6.52697e-06
-4.78069e-05 0.000102568 -3.8052e-06
-7.57705e-05 9.68848e-05 -3.58588e-06
-0.000100886 9.19091e-05 -5.53149e-06
-0.000122927 8.7662e-05 -9.509e-06
-0.000137503 8.4914e-05 -1.38369e-05
-0.000145746 8.32095e-05 -1.70562e-05
-0.000155772 8.08305e-05 -2.22403e-05
-0.000166009 7.80757e-05 -2.94596e-05
-0.000172242 7.55915e-05 -3.62664e-05
-0.000174837 7.37921e-05 -4.07232e-05
-0.000174965 7.19822e-05 -4.48109e-05
-0.000173977 7.00915e-05 -4.81423e-05
-0.000170977 6.81688e-05 -5.11384e-05
-0.000165172 6.5607e-05 -5.43944e-05
-0.000157187 6.33646e-05 -5.71358e-05
-0.000150123 6.23265e-05 -5.8891e-05
-0.000144839 6.19858e-05 -5.99516e-05
-0.000136334 6.21461e-05 -6.13645e-05
-0.000124906 6.47229e-05 -6.27491e-05
-0.000114519 7.03036e-05 -6.37781e-05
-0.000107007 7.92484e-05 -6.47593e-05
-0.0001049 9.10388e-05 -6.6216e-05
-0.000110944 0.000102198 -6.91516e-05
-0.000119321 0.000100707 -7.38836e-05
-0.000123046 9.13479e-05 -7.81334e-05
-0.000116416 7.19859e-05 -8.55246e-05
-9.41429e-05 5.06223e-05 -9.49411e-05
-6.02915e-05 3.71867e-05 -0.000101883
-2.06778e-05 3.08733e-05 -0.000105512
1.71427e-05 3.52047e-05 -6.45459e-05
4.98518e-05 4.24362e-05 -5.69297e-05
7.73126e-05 5.88729e-05 -4.2044e-05
9.25015e-05 8.99408e-05 -2.07736e-05
8.7861e-05 0.000133089 -2.31258e-06
6.23256e-05 0.000165789 8.28992e-06
1.92634e-05 0.000161393 1.73436e-05
-2.37158e-05 0.000146052 2.11055e-05
-5.55345e-05 0.000133857 2.18699e-05
-8.24909e-05 0.000124625 2.09078e-05
-0.000106471 0.000117467 1.83445e-05
-0.000127618 0.000111681 1.40389e-05
-0.000141656 0.000108022 9.513e-06
-0.000149591 0.000105769 6.17921e-06
-0.000159215 0.000102646 8.8185e-07
-0.000169039 9.90733e-05 -6.23843e-06
-0.000175074 9.58514e-05 -1.28191e-05
-0.000177645 9.34857e-05 -1.71672e-05
-0.000177869 9.10835e-05 -2.1228e-05
-0.000176995 8.85218e-05 -2.47836e-05
-0.000174044 8.58905e-05 -2.81514e-05
-0.000168079 8.23121e-05 -3.23252e-05
-0.000159419 7.90924e-05 -3.6355e-05
-0.000151435 7.75041e-05 -3.92147e-05
-0.000145191 7.69199e-05 -4.09815e-05
-0.0001347 7.69738e-05 -4.33234e-05
-0.000119931 8.0416e-05 -4.53471e-05
-0.000105374 8.84534e-05 -4.62967e-05
-9.33076e-05 0.000102604 -4.63633e-05
-8.84267e-05 0.000124962 -4.58797e-05
-0.000102403 0.000157326 -4.60129e-05
-0.00013255 0.000177734 -5.05195e-05
-0.000154524 0.000143407 -5.78904e-05
-0.000148447 9.35464e-05 -7.14256e-05
-0.000116187 5.81287e-05 -8.63508e-05
-7.22254e-05 4.00091e-05 -9.62704e-05
-2.44081e-05 3.2237e-05 -0.000101183
1.98945e-05 3.04113e-05 -5.99414e-05
5.91349e-05 3.71939e-05 -5.10177e-05
9.74603e-05 5.32737e-05 -3.29161e-05
0.000136107 8.73995e-05 -4.38843e-06
0.000155829 0.000156192 2.74758e-05
9.22159e-05 0.000270269 4.97413e-05
1.79881e-06 0.000202375 5.14061e-05
-3.91946e-05 0.000170108 4.84789e-05
-6.58091e-05 0.000152433 4.6112e-05
-8.97431e-05 0.000140745 4.36758e-05
-0.00011199 0.000132172 4.04653e-05
-0.000132099 0.000125375 3.59342e-05
-0.000145581 0.000121081 3.1357e-05
-0.00015321 0.000118435 2.80235e-05
-0.000162435 0.000114767 2.2855e-05
-0.000171862 0.000110568 1.62701e-05
-0.000177732 0.000106772 1.03108e-05
-0.000180307 0.000103974 6.27955e-06
-0.000180655 0.000101126 2.40609e-06
-0.000179925 9.80761e-05 -1.30144e-06
-0.000177059 9.49352e-05 -5.00488e-06
-0.000170997 9.06341e-05 -1.01209e-05
-0.000161748 8.67097e-05 -1.55184e-05
-0.000152916 8.46975e-05 -1.95912e-05
-0.00014575 8.39054e-05 -2.21382e-05
-0.00013329 8.38103e-05 -2.54602e-05
-0.000115052 8.76942e-05 -2.8033e-05
-9.55913e-05 9.72239e-05 -2.87077e-05
-7.6201e-05 0.000114897 -2.74517e-05
-5.97401e-05 0.000145824 -2.37816e-05
-6.41281e-05 0.000204429 -1.65439e-05
-0.00015371 0.000319623 -1.1753e-05
-0.000232265 0.0001855 -3.0452e-05
-0.000200848 9.59251e-05 -5.76893e-05
-0.000139807 5.4211e-05 -7.95607e-05
-8.26937e-05 3.56677e-05 -9.22671e-05
-2.74395e-05 2.81354e-05 -9.82295e-05
2.14513e-05 2.37206e-05 -5.73957e-05
6.43774e-05 2.90527e-05 -4.77412e-05
0.000109131 4.12739e-05 -2.78568e-05
0.000169961 6.41516e-05 4.89197e-06
0.000269348 9.80616e-05 4.90641e-05
-0.00551519 0.000297026 0.0316544
-0.0231025 0.000195338 0.0316061
-0.0465281 0.000155407 0.0314193
-0.069729 0.000137067 0.0309488
-0.0923934 0.000125944 0.0299495
-0.113995 0.000118053 0.0280826
-0.133737 0.000111862 0.0249659
-0.147028 0.000107958 0.0215233
-0.154551 0.000105551 0.0189609
-0.163636 0.000102213 0.0150029
-0.172921 9.83856e-05 0.010083
-0.178729 9.49177e-05 0.00570759
-0.181303 9.23574e-05 0.00274355
-0.181693 8.97512e-05 -0.000130892
-0.181013 8.696e-05 -0.00297996
-0.178178 8.40851e-05 -0.00589389
-0.172082 8.01437e-05 -0.0101399
-0.162624 7.65338e-05 -0.0148789
-0.153489 7.46611e-05 -0.0186777
-0.145991 7.39104e-05 -0.0211338
-0.13282 7.378e-05 -0.024427
-0.113323 7.72758e-05 -0.0273916
-0.0920479 8.60231e-05 -0.0291546
-0.0697467 0.000102696 -0.0300905
-0.0469066 0.00013367 -0.0305256
-0.023797 0.000200133 -0.0306832
-0.00633842 0.000353865 -0.0306689
-0.000391803 0.00012134 -8.20739e-06
-0.000246488 7.16625e-05 -4.95526e-05
-0.000154189 4.24496e-05 -7.57355e-05
-8.87526e-05 2.80561e-05 -9.00302e-05
-2.91847e-05 2.20478e-05 -9.6589e-05
2.31152e-05 9.90949e-06 -5.46512e-05
6.96786e-05 1.21284e-05 -4.42342e-05
0.000117949 1.69795e-05 -2.271e-05
0.000170248 2.3891e-05 1.19888e-05
0.000207868 1.90063e-05 5.0946e-05
-0.00561366 0.000129136 0.0316403
-0.0231595 8.72645e-05 0.0315828
-0.0465498 6.71053e-05 0.031395
-0.0697394 5.83054e-05 0.0309262
-0.0923997 5.33076e-05 0.0299289
-0.113999 4.98832e-05 0.028064
-0.133741 4.72413e-05 0.0249491
-0.147031 4.55915e-05 0.0215079
-0.154554 4.45785e-05 0.0189465
-0.163638 4.31776e-05 0.01499
-0.172923 4.15757e-05 0.0100721
-0.178731 4.01228e-05 0.00569871
-0.181305 3.90458e-05 0.00273596
-0.181695 3.79469e-05 -0.000137302
-0.181016 3.67647e-05 -0.00298547
-0.17818 3.5545e-05 -0.00589863
-0.172084 3.38681e-05 -0.0101441
-0.162626 3.23283e-05 -0.0148829
-0.153491 3.15273e-05 -0.0186822
-0.145992 3.12064e-05 -0.0211386
-0.132819 3.11524e-05 -0.0244325
-0.113319 3.26638e-05 -0.0273986
-0.0920395 3.648e-05 -0.0291638
-0.0697303 4.39175e-05 -0.0301034
-0.0468719 5.83261e-05 -0.030544
-0.0237143 9.00578e-05 -0.0307074
-0.00621124 0.000148948 -0.0306915
-0.000319845 2.29273e-05 -6.40413e-06
-0.000249615 2.65986e-05 -4.35808e-05
-0.000165321 1.75176e-05 -7.18712e-05
-9.49656e-05 1.17498e-05 -8.76308e-05
-3.1073e-05 9.23152e-06 -9.48154e-05
2.31155e-05 -9.98509e-06 -5.46554e-05
6.96803e-05 -1.22032e-05 -4.42385e-05
0.000117955 -1.70506e-05 -2.2714e-05
0.000170264 -2.39488e-05 1.19867e-05
0.000207896 -1.90308e-05 5.09487e-05
-0.00561363 -0.000129443 0.0316403
-0.0231595 -8.75219e-05 0.0315827
-0.0465498 -6.73432e-05 0.031395
-0.0697394 -5.85417e-05 0.0309262
-0.0923997 -5.35449e-05 0.0299289
-0.113999 -5.01165e-05 0.028064
-0.133741 -4.7463e-05 0.0249491
-0.147031 -4.57998e-05 0.0215079
-0.154554 -4.47767e-05 0.0189465
-0.163638 -4.33597e-05 0.01499
-0.172923 -4.17357e-05 0.0100721
-0.178731 -4.02627e-05 0.0056987
-0.181305 -3.91734e-05 0.00273595
-0.181695 -3.80637e-05 -0.000137302
-0.181016 -3.68746e-05 -0.00298547
-0.17818 -3.56497e-05 -0.00589863
-0.172084 -3.3971e-05 -0.0101441
-0.162626 -3.24341e-05 -0.0148829
-0.153491 -3.16382e-05 -0.0186822