<?xml version="1.0"?>
<VTKFile type="RectilinearGrid" version="0.1" byte_order="LittleEndian">
<RectilinearGrid WholeExtent="0 37 0 14 0 34">
<Piece Extent="0 37 0 14 0 34">
<PointData>
</PointData>
<CellData>
<DataArray type="Float32" Name="Flussdichte" NumberOfComponents="3" format="ascii">
8.10572e-06 7.53051e-06 -1.56362e-05
2.23897e-05 8.56767e-06 -1.47459e-05
3.11135e-05 1.05596e-05 -1.31052e-05
3.14319e-05 1.32204e-05 -1.09933e-05
2.62738e-05 1.52176e-05 -9.35566e-06
1.93199e-05 1.63709e-05 -8.32498e-06
4.53084e-06 1.77e-05 -6.93392e-06
-1.88032e-05 1.8219e-05 -5.65101e-06
-4.43359e-05 1.79157e-05 -4.95092e-06
-6.97578e-05 1.72398e-05 -4.78267e-06
-9.35896e-05 1.64628e-05 -5.08812e-06
-0.000114866 1.57063e-05 -5.80457e-06
-0.000129066 1.51844e-05 -6.58869e-06
-0.000137204 1.48532e-05 -7.17292e-06
-0.000147306 1.43809e-05 -8.11869e-06
-0.000157911 1.38116e-05 -9.46878e-06
-0.000164757 1.32878e-05 -1.07846e-05
-0.000167881 1.29161e-05 -1.1674e-05
-0.000168554 1.25516e-05 -1.24993e-05
-0.000168118 1.21985e-05 -1.31768e-05
-0.000165702 1.18552e-05 -1.37811e-05
-0.000160817 1.14431e-05 -1.44032e-05
-0.000154114 1.11319e-05 -1.48741e-05
-0.00014832 1.10355e-05 -1.51402e-05
-0.000144137 1.1035e-05 -1.52947e-05
-0.000137657 1.11479e-05 -1.54985e-05
-0.000129249 1.16636e-05 -1.57216e-05
-0.000121821 1.25725e-05 -1.59423e-05
-0.000116001 1.37759e-05 -1.62259e-05
-0.00011183 1.49452e-05 -1.66655e-05
-0.000108172 1.54436e-05 -1.73817e-05
-0.000104511 1.47559e-05 -1.82019e-05
-0.000100347 1.3947e-05 -1.88287e-05
-9.03884e-05 1.23306e-05 -1.98485e-05
-7.15619e-05 9.88204e-06 -2.11908e-05
-4.59805e-05 7.95911e-06 -2.22318e-05
-1.58539e-05 6.93908e-06 -2.2793e-05
9.14287e-06 2.08481e-05 -1.49299e-05
2.54188e-05 2.38862e-05 -1.38839e-05
3.57663e-05 2.98285e-05 -1.19237e-05
3.67557e-05 3.80105e-05 -9.34449e-06
3.12433e-05 4.4349e-05 -7.33926e-06
2.33986e-05 4.79715e-05 -6.11477e-06
6.82194e-06 5.19681e-05 -4.54904e-06
-1.85875e-05 5.31185e-05 -3.29022e-06
-4.53151e-05 5.18635e-05 -2.69491e-06
-7.12106e-05 4.96652e-05 -2.62731e-06
-9.51232e-05 4.72888e-05 -3.00888e-06
-0.000116318 4.50348e-05 -3.78141e-06
-0.000130424 4.34971e-05 -4.59884e-06
-0.000138496 4.25238e-05 -5.20294e-06
-0.000148505 4.11387e-05 -6.17514e-06
-0.000159004 3.94716e-05 -7.55132e-06
-0.000165776 3.79372e-05 -8.88656e-06
-0.000168863 3.68451e-05 -9.79015e-06
-0.000169511 3.57718e-05 -1.06315e-05
-0.000169046 3.47258e-05 -1.13328e-05
-0.000166572 3.37046e-05 -1.19659e-05
-0.00016154 3.24667e-05 -1.26413e-05
-0.000154554 3.15146e-05 -1.31757e-05
-0.000148449 3.11991e-05 -1.34882e-05
-0.000143988 3.11777e-05 -1.36699e-05
-0.000136991 3.14849e-05 -1.39049e-05
-0.000127824 3.3006e-05 -1.41297e-05
-0.000119709 3.57765e-05 -1.42961e-05
-0.000113628 3.95967e-05 -1.44608e-05
-0.000110163 4.35747e-05 -1.4734e-05
-0.00010859 4.56945e-05 -1.533e-05
-0.000107046 4.37332e-05 -1.62657e-05
-0.00010412 4.11507e-05 -1.70636e-05
-9.49922e-05 3.58758e-05 -1.84389e-05
-7.59334e-05 2.81728e-05 -2.02431e-05
-4.89234e-05 2.2333e-05 -2.15903e-05
-1.68739e-05 1.93e-05 -2.22958e-05
1.11438e-05 2.91516e-05 -1.36603e-05
3.13701e-05 3.38452e-05 -1.22906e-05
4.52378e-05 4.33727e-05 -9.62009e-06
4.80653e-05 5.74111e-05 -5.87338e-06
4.19702e-05 6.93437e-05 -2.80619e-06
3.18937e-05 7.61228e-05 -1.04316e-06
1.101e-05 8.26384e-05 8.4242e-07
-1.89079e-05 8.29545e-05 1.81797e-06
-4.77892e-05 7.9755e-05 2.04859e-06
-7.43325e-05 7.5646e-05 1.84006e-06
-9.822e-05 7.16281e-05 1.27598e-06
-0.00011917 6.79712e-05 3.84026e-07
-0.000133063 6.55098e-05 -4.95804e-07
-0.000140997 6.39558e-05 -1.13441e-06
-0.00015082 6.17468e-05 -2.14864e-06
-0.000161112 5.90874e-05 -3.55705e-06
-0.000167747 5.66348e-05 -4.91126e-06
-0.000170768 5.48818e-05 -5.83201e-06
-0.00017138 5.31533e-05 -6.69682e-06
-0.000170874 5.1453e-05 -7.44289e-06
-0.000168302 4.97825e-05 -8.1333e-06
-0.000163007 4.77209e-05 -8.91971e-06
-0.000155487 4.60796e-05 -9.5879e-06
-0.000148783 4.54638e-05 -9.99691e-06
-0.000143771 4.53539e-05 -1.02334e-05
-0.000135726 4.57396e-05 -1.05276e-05
-0.000124957 4.81115e-05 -1.07342e-05
-0.00011523 5.27293e-05 -1.07405e-05
-0.000108203 5.95912e-05 -1.05575e-05
-0.000105733 6.7674e-05 -1.02769e-05
-0.000108667 7.35861e-05 -1.02876e-05
-0.000112291 7.09785e-05 -1.13699e-05
-0.000112545 6.59521e-05 -1.26902e-05
-0.000105125 5.54506e-05 -1.52082e-05
-8.51047e-05 4.16836e-05 -1.8274e-05
-5.48532e-05 3.2023e-05 -2.03548e-05
-1.88868e-05 2.72143e-05 -2.13792e-05
1.38364e-05 2.9945e-05 -1.21134e-05
3.96399e-05 3.53443e-05 -1.02581e-05
5.93323e-05 4.68714e-05 -6.38906e-06
6.67042e-05 6.5797e-05 -2.01349e-07
6.07116e-05 8.57545e-05 5.94839e-06
4.56442e-05 9.84903e-05 9.41054e-06
1.58255e-05 0.000105914 1.12164e-05
-2.14708e-05 0.000102221 1.07948e-05
-5.26235e-05 9.58441e-05 1.00172e-05
-7.93376e-05 8.97052e-05 9.2033e-06
-0.000102798 8.43118e-05 8.28572e-06
-0.000123257 7.95651e-05 7.18592e-06
-0.000136814 7.63632e-05 6.21281e-06
-0.000144549 7.43314e-05 5.52818e-06
-0.00015411 7.14272e-05 4.46668e-06
-0.000164116 6.79008e-05 3.044e-06
-0.000170566 6.46353e-05 1.69549e-06
-0.000173505 6.22959e-05 7.67155e-07
-0.000174083 5.9985e-05 -1.19521e-07
-0.00017354 5.76972e-05 -9.29214e-07
-0.000170861 5.54349e-05 -1.70604e-06
-0.000165243 5.25798e-05 -2.66627e-06
-0.000157016 5.01913e-05 -3.54241e-06
-0.00014949 4.91321e-05 -4.0948e-06
-0.000143693 4.88e-05 -4.40769e-06
-0.000134105 4.90029e-05 -4.7711e-06
-0.000120834 5.17234e-05 -4.88206e-06
-0.000108229 5.76503e-05 -4.5085e-06
-9.86835e-05 6.74123e-05 -3.5084e-06
-9.61678e-05 8.09282e-05 -1.71833e-06
-0.000106155 9.49487e-05 5.87957e-07
-0.000120575 9.48524e-05 2.58143e-07
-0.000128175 8.45228e-05 -2.93463e-06
-0.000122761 6.5559e-05 -9.20776e-06
-9.9361e-05 4.60695e-05 -1.52246e-05
-6.33927e-05 3.39437e-05 -1.8673e-05
-2.16826e-05 2.82429e-05 -2.02188e-05
1.58665e-05 2.58167e-05 -1.1056e-05
4.61324e-05 3.08347e-05 -8.79803e-06
7.1601e-05 4.18898e-05 -3.77841e-06
8.68767e-05 6.14348e-05 5.62751e-06
8.57167e-05 8.69148e-05 1.90725e-05
6.18591e-05 0.000111668 2.95178e-05
1.68679e-05 0.000115082 2.65133e-05
-2.71014e-05 0.000105911 2.2311e-05
-5.83847e-05 9.70485e-05 1.98646e-05
-8.4233e-05 8.98805e-05 1.82112e-05
-0.00010697 8.39597e-05 1.68214e-05
-0.000126954 7.87627e-05 1.54467e-05
-0.00014025 7.51679e-05 1.4357e-05
-0.000147837 7.28562e-05 1.3618e-05
-0.000157191 6.95139e-05 1.25063e-05
-0.000166957 6.53989e-05 1.1081e-05
-0.000173241 6.15741e-05 9.75016e-06
-0.000176103 5.88407e-05 8.81725e-06
-0.000176654 5.61441e-05 7.9085e-06
-0.000176091 5.34753e-05 7.02972e-06
-0.000173345 5.08272e-05 6.16026e-06
-0.000167498 4.74266e-05 5.02183e-06
-0.00015872 4.44535e-05 3.94681e-06
-0.000150517 4.29474e-05 3.27517e-06
-0.000144047 4.23303e-05 2.9107e-06
-0.000133078 4.21459e-05 2.53214e-06
-0.000117441 4.45554e-05 2.64685e-06
-0.000101713 5.06084e-05 3.61552e-06
-8.83644e-05 6.15268e-05 5.83342e-06
-8.26891e-05 7.86866e-05 1.01674e-05
-9.76202e-05 0.000101526 1.83276e-05
-0.000129953 0.000110171 2.58771e-05
-0.000150911 8.80107e-05 1.41782e-05
-0.000143115 6.2657e-05 -2.0468e-06
-0.00011238 4.18866e-05 -1.24534e-05
-7.03581e-05 2.9957e-05 -1.7371e-05
-2.38614e-05 2.45438e-05 -1.93911e-05
1.70221e-05 2.01352e-05 -1.04696e-05
4.98406e-05 2.41296e-05 -7.98772e-06
7.87219e-05 3.28707e-05 -2.33756e-06
0.000100188 4.78467e-05 8.96113e-06
0.000110787 6.57818e-05 2.94901e-05
7.80784e-05 8.28801e-05 0.000134894
1.38634e-05 8.27605e-05 9.39185e-05
-3.23645e-05 7.47839e-05 7.43519e-05
-6.25592e-05 6.79941e-05 6.53135e-05
-8.75138e-05 6.27485e-05 5.97865e-05
-0.000109747 5.84692e-05 5.53962e-05
-0.000129484 5.46853e-05 5.11926e-05
-0.000142667 5.20269e-05 4.79142e-05
-0.000150185 5.0305e-05 4.57045e-05
-0.000159423 4.78001e-05 4.24028e-05
-0.000169033 4.46925e-05 3.82263e-05
-0.000175192 4.17981e-05 3.43503e-05
-0.000177991 3.97341e-05 3.16198e-05
-0.000178517 3.77015e-05 2.8943e-05
-0.000177935 3.56964e-05 2.63046e-05
-0.000175155 3.37073e-05 2.3666e-05
-0.000169181 3.11445e-05 2.0135e-05
-0.000160075 2.8874e-05 1.67349e-05
-0.000151454 2.76764e-05 1.45737e-05
-0.000144551 2.71522e-05 1.33923e-05
-0.000132681 2.68945e-05 1.21576e-05
-0.000115472 2.84586e-05 1.25145e-05
-9.75713e-05 3.26736e-05 1.5658e-05
-8.12046e-05 4.05373e-05 2.30261e-05
-7.16753e-05 5.34013e-05 3.83181e-05
-8.61272e-05 7.1812e-05 7.25688e-05
-0.000140098 8.18128e-05 0.00014051
-0.000174816 6.6935e-05 2.96548e-05
-0.000156833 4.91713e-05 2.39788e-06
-0.000120051 3.30957e-05 -1.08616e-05
-7.43859e-05 2.35636e-05 -1.66325e-05
-2.51155e-05 1.92139e-05 -1.89259e-05
1.82844e-05 8.41207e-06 -9.8375e-06
5.38299e-05 1.00954e-05 -7.1312e-06
8.58283e-05 1.37321e-05 -9.7246e-07
0.000109388 1.95736e-05 1.07797e-05
0.000116764 2.43983e-05 2.73134e-05
7.92774e-05 2.51721e-05 9.7268e-05
1.22682e-05 2.52167e-05 5.6198e-05
-3.55447e-05 2.30332e-05 3.98881e-05
-6.53239e-05 2.09769e-05 3.39237e-05
-8.97363e-05 1.93468e-05 3.08348e-05
-0.000111628 1.80136e-05 2.84395e-05
-0.000131185 1.68398e-05 2.59926e-05
-0.000144283 1.60201e-05 2.39414e-05
-0.000151751 1.54901e-05 2.25251e-05
-0.000160911 1.47199e-05 2.03767e-05
-0.000170421 1.3763e-05 1.76331e-05
-0.000176499 1.28701e-05 1.50943e-05
-0.000179255 1.22331e-05 1.33176e-05
-0.000179761 1.16061e-05 1.15796e-05
-0.000179163 1.09894e-05 9.8645e-06
-0.000176352 1.0379e-05 8.13961e-06
-0.000170282 9.59745e-06 5.77823e-06
-0.000160943 8.91197e-06 3.40384e-06
-0.000152033 8.55799e-06 1.77219e-06
-0.000144838 8.40752e-06 8.15863e-07
-0.000132361 8.34576e-06 -3.26582e-07
-0.000114091 8.85405e-06 -7.30298e-07
-9.47251e-05 1.01867e-05 4.19243e-07
-7.63986e-05 1.26486e-05 4.10451e-06
-6.474e-05 1.65943e-05 1.34958e-05
-7.95578e-05 2.18946e-05 3.98288e-05
-0.000137196 2.44865e-05 0.000103928
-0.000179039 2.46891e-05 2.89655e-05
-0.000166076 2.0155e-05 5.08929e-06
-0.000127751 1.38704e-05 -9.33186e-06
-7.87556e-05 9.88472e-06 -1.58445e-05
-2.64967e-05 8.04269e-06 -1.84202e-05
1.82847e-05 -8.48115e-06 -9.83838e-06
5.38309e-05 -1.0164e-05 -7.132e-06
8.58312e-05 -1.37986e-05 -9.72937e-07
0.000109395 -1.96342e-05 1.07805e-05
0.000116775 -2.44485e-05 2.73171e-05
7.92859e-05 -2.5212e-05 9.72837e-05
1.2271e-05 -2.5251e-05 5.621e-05
-3.55442e-05 -2.30665e-05 3.98993e-05
-6.53239e-05 -2.10105e-05 3.39349e-05
-8.97362e-05 -1.93806e-05 3.0846e-05
-0.000111628 -1.80469e-05 2.84505e-05
-0.000131184 -1.68718e-05 2.60032e-05
-0.000144282 -1.60504e-05 2.39514e-05
-0.00015175 -1.55194e-05 2.25348e-05
-0.00016091 -1.47472e-05 2.03858e-05
-0.00017042 -1.37876e-05 1.76413e-05
-0.000176499 -1.28922e-05 1.51017e-05
-0.000179254 -1.22536e-05 1.33245e-05
-0.00017976 -1.16252e-05 1.1586e-05
-0.000179162 -1.10075e-05 9.87053e-06
-0.000176352 -1.03963e-05 8.1454e-06
-0.000170282 -9.6144e-06 5.7839e-06
-0.000160943 -8.92915e-06 3.40958e-06
-0.000152033 -8.57573e-06 1.7781e-06
-0.000144839 -8.42572e-06 8.21923e-07
-0.000132361 -8.36479e-06 -3.20257e-07
-0.000114091 -8.87436e-06 -7.23552e-07
-9.47255e-05 -1.02084e-05 4.26432e-07
-7.63991e-05 -1.26716e-05 4.11216e-06
-6.4741e-05 -1.66188e-05 1.35041e-05
-7.95609e-05 -2.19219e-05 3.98385e-05
-0.000137204 -2.45201e-05 0.000103941
-0.000179049 -2.47328e-05 2.89686e-05
-0.000166083 -2.02097e-05 5.08973e-06
-0.000127754 -1.39326e-05 -9.33258e-06
-7.87571e-05 -9.95027e-06 -1.58456e-05
-2.64971e-05 -8.10949e-06 -1.84214e-05
1.70224e-05 -2.02027e-05 -1.04718e-05
4.9842e-05 -2.41973e-05 -7.98985e-06
7.87264e-05 -3.29384e-05 -2.33917e-06
0.000100199 -4.79135e-05 8.96194e-06
0.000110807 -6.58472e-05 2.94988e-05
7.80953e-05 -8.29462e-05 0.000134945
1.38683e-05 -8.28255e-05 9.39636e-05
-3.23642e-05 -7.48496e-05 7.4396e-05
-6.25596e-05 -6.80612e-05 6.53581e-05
-8.75136e-05 -6.28162e-05 5.98313e-05
-0.000109746 -5.8536e-05 5.54404e-05
-0.000129482 -5.47494e-05 5.1235e-05
-0.000142664 -5.20878e-05 4.79545e-05
-0.000150182 -5.03635e-05 4.57433e-05
-0.000159419 -4.78547e-05 4.24391e-05
-0.000169029 -4.47415e-05 3.8259e-05
-0.000175189 -4.1842e-05 3.43797e-05
-0.000177988 -3.97748e-05 3.16469e-05
-0.000178515 -3.77392e-05 2.89682e-05
-0.000177934 -3.57321e-05 2.63286e-05
-0.000175154 -3.37416e-05 2.3689e-05
-0.000169181 -3.1178e-05 2.01574e-05
-0.000160076 -2.89081e-05 1.67577e-05
-0.000151455 -2.77116e-05 1.45972e-05
-0.000144552 -2.71883e-05 1.34164e-05
-0.000132682 -2.69324e-05 1.21828e-05
-0.000115474 -2.84991e-05 1.25415e-05
-9.75731e-05 -3.27168e-05 1.56867e-05
-8.12065e-05 -4.05831e-05 2.30566e-05
-7.1678e-05 -5.34495e-05 3.83506e-05
-8.61341e-05 -7.18634e-05 7.26048e-05
-0.000140116 -8.1868e-05 0.000140553
-0.000174837 -6.69912e-05 2.9662e-05
-0.000156846 -4.9231e-05 2.39797e-06
-0.000120057 -3.31586e-05 -1.08638e-05
-7.43887e-05 -2.36281e-05 -1.66352e-05
-2.51162e-05 -1.9279e-05 -1.89287e-05
1.58666e-05 -2.58818e-05 -1.10591e-05
4.61334e-05 -3.09005e-05 -8.8011e-06
7.16048e-05 -4.19574e-05 -3.78107e-06
8.68863e-05 -6.15058e-05 5.62692e-06
8.57308e-05 -8.69924e-05 1.90776e-05
6.18705e-05 -0.000111754 2.95293e-05
1.68719e-05 -0.000115172 2.65257e-05
-2.71021e-05 -0.000106004 2.23231e-05
-5.83858e-05 -9.71441e-05 1.98767e-05
-8.42327e-05 -8.99774e-05 1.82232e-05
-0.000106967 -8.40553e-05 1.68332e-05
-0.000126949 -7.88544e-05 1.54581e-05
-0.000140244 -7.52549e-05 1.43679e-05
-0.00014783 -7.29398e-05 1.36286e-05
-0.000157184 -6.95918e-05 1.25164e-05
-0.00016695 -6.54688e-05 1.10903e-05
-0.000173234 -6.16365e-05 9.75862e-06
-0.000176097 -5.88983e-05 8.82519e-06
-0.00017665 -5.61976e-05 7.91596e-06
-0.000176088 -5.3526e-05 7.03683e-06
-0.000173344 -5.08757e-05 6.16709e-06
-0.000167498 -4.74741e-05 5.0285e-06
-0.000158721 -4.45018e-05 3.95351e-06
-0.00015052 -4.29974e-05 3.28202e-06
-0.000144049 -4.23817e-05 2.91766e-06
-0.000133081 -4.21998e-05 2.53932e-06
-0.000117444 -4.46131e-05 2.65438e-06
-0.000101717 -5.06699e-05 3.62345e-06
-8.83679e-05 -6.15919e-05 5.84178e-06
-8.26935e-05 -7.87548e-05 1.01763e-05
-9.76286e-05 -0.000101597 1.83372e-05
-0.000129968 -0.000110242 2.58864e-05
-0.000150928 -8.80767e-05 1.41819e-05
-0.000143128 -6.27199e-05 -2.04822e-06
-0.000112387 -4.19491e-05 -1.24568e-05
-7.03612e-05 -3.00196e-05 -1.73748e-05
-2.38622e-05 -2.46064e-05 -1.93949e-05
1.38362e-05 -3.00038e-05 -1.21178e-05
3.96396e-05 -3.54047e-05 -1.02626e-05
5.93332e-05 -4.69352e-05 -6.39362e-06
6.67075e-05 -6.58671e-05 -2.052e-07
6.07161e-05 -8.58329e-05 5.94625e-06
4.56471e-05 -9.8575e-05 9.40962e-06
1.58248e-05 -0.000106006 1.1216e-05
-2.14744e-05 -0.000102318 1.07935e-05
-5.26265e-05 -9.59448e-05 1.0015e-05
-7.93374e-05 -8.98076e-05 9.20037e-06
-0.000102794 -8.4413e-05 8.28264e-06
-0.000123248 -7.96623e-05 7.18328e-06
-0.000136802 -7.64554e-05 6.21078e-06
-0.000144537 -7.44199e-05 5.52658e-06
-0.000154096 -7.15096e-05 4.46578e-06
-0.000164103 -6.79748e-05 3.04393e-06
-0.000170554 -6.47013e-05 1.69606e-06
-0.000173494 -6.23568e-05 7.68038e-07
-0.000174075 -6.00415e-05 -1.18393e-07
-0.000173535 -5.77506e-05 -9.27988e-07
-0.000170858 -5.5486e-05 -1.70477e-06
-0.000165242 -5.26299e-05 -2.66511e-06
-0.000157019 -5.02423e-05 -3.54149e-06
-0.000149494 -4.91849e-05 -4.09418e-06
-0.000143699 -4.88543e-05 -4.40728e-06
-0.000134111 -4.90598e-05 -4.77104e-06
-0.000120841 -5.17844e-05 -4.88251e-06
-0.000108235 -5.77152e-05 -4.50939e-06
-9.86895e-05 -6.74806e-05 -3.50951e-06
-9.61741e-05 -8.09989e-05 -1.71938e-06
-0.000106164 -9.50202e-05 5.87045e-07
-0.000120586 -9.49218e-05 2.56526e-07
-0.000128187 -8.45887e-05 -2.9375e-06
-0.000122771 -6.56205e-05 -9.2124e-06
-9.93668e-05 -4.6128e-05 -1.52301e-05
-6.33954e-05 -3.40007e-05 -1.86786e-05
-2.16833e-05 -2.82992e-05 -2.02242e-05
1.11426e-05 -2.91985e-05 -1.36663e-05
3.13667e-05 -3.38939e-05 -1.2297e-05
4.5233e-05 -4.34255e-05 -9.62718e-06
4.80596e-05 -5.74705e-05 -5.88128e-06
4.19638e-05 -6.941e-05 -2.8147e-06
3.18863e-05 -7.61939e-05 -1.05218e-06
1.10011e-05 -8.27159e-05 8.32303e-07
-1.8917e-05 -8.30382e-05 1.80576e-06
-4.77953e-05 -7.98428e-05 2.03439e-06
-7.43327e-05 -7.57356e-05 1.8246e-06
-9.82129e-05 -7.17168e-05 1.26042e-06
-0.000119156 -6.80564e-05 3.69614e-07
-0.000133044 -6.55908e-05 -5.08699e-07
-0.000140977 -6.40335e-05 -1.14617e-06
-0.000150798 -6.18193e-05 -2.15862e-06
-0.000161091 -5.91524e-05 -3.56477e-06
-0.000167728 -5.66929e-05 -4.91707e-06
-0.000170752 -5.49354e-05 -5.83676e-06
-0.000171367 -5.3203e-05 -6.70071e-06
-0.000170865 -5.15001e-05 -7.4463e-06
-0.000168297 -4.98276e-05 -8.13641e-06
-0.000163006 -4.77651e-05 -8.92289e-06
-0.000155491 -4.61245e-05 -9.59159e-06
-0.00014879 -4.55102e-05 -1.00013e-05
-0.000143779 -4.54017e-05 -1.02383e-05
-0.000135736 -4.57896e-05 -1.05333e-05
-0.000124967 -4.8165e-05 -1.07413e-05
-0.00011524 -5.2786e-05 -1.07487e-05
-0.000108211 -5.96504e-05 -1.05664e-05
-0.00010574 -6.77346e-05 -1.0286e-05
-0.000108674 -7.36461e-05 -1.02964e-05
-0.000112297 -7.1036e-05 -1.13786e-05
-0.000112551 -6.60073e-05 -1.26988e-05
-0.000105129 -5.5502e-05 -1.52166e-05
-8.51074e-05 -4.17314e-05 -1.82821e-05
-5.48543e-05 -3.20686e-05 -2.03624e-05
-1.88871e-05 -2.72589e-05 -2.13865e-05
9.14072e-06 -2.08784e-05 -1.49371e-05
2.54126e-05 -2.39179e-05 -1.38917e-05
3.57566e-05 -2.98632e-05 -1.19327e-05
3.67432e-05 -3.80497e-05 -9.35517e-06
3.12291e-05 -4.43927e-05 -7.35158e-06
2.33835e-05 -4.80182e-05 -6.12832e-06
6.80647e-06 -5.2019e-05 -4.5646e-06
-1.86014e-05 -5.31738e-05 -3.30874e-06
-4.53239e-05 -5.19217e-05 -2.71605e-06
-7.12113e-05 -4.97247e-05 -2.65004e-06
-9.51143e-05 -4.73478e-05 -3.03169e-06
-0.0001163 -4.50916e-05 -3.80269e-06
-0.0001304 -4.35511e-05 -4.61811e-06
-0.00013847 -4.25757e-05 -5.22069e-06
-0.000148477 -4.11872e-05 -6.19049e-06
-0.000158976 -3.95152e-05 -7.56355e-06
-0.000165751 -3.79761e-05 -8.89613e-06
-0.000168841 -3.68811e-05 -9.79821e-06
-0.000169494 -3.58053e-05 -1.06383e-05
-0.000169034 -3.47575e-05 -1.13389e-05
-0.000166565 -3.37349e-05 -1.19716e-05
-0.000161539 -3.24964e-05 -1.2647e-05
-0.000154559 -3.15447e-05 -1.31821e-05
-0.000148458 -3.12302e-05 -1.34955e-05
-0.000143999 -3.12097e-05 -1.36779e-05
-0.000137003 -3.15184e-05 -1.3914e-05
-0.000127837 -3.30417e-05 -1.41406e-05
-0.000119721 -3.58143e-05 -1.43085e-05
-0.000113638 -3.96359e-05 -1.44743e-05
-0.00011017 -4.36145e-05 -1.47476e-05
-0.000108595 -4.57336e-05 -1.53431e-05
-0.000107049 -4.37706e-05 -1.62781e-05
-0.000104122 -4.11867e-05 -1.70755e-05
-9.49934e-05 -3.59095e-05 -1.845e-05
-7.59334e-05 -2.82039e-05 -2.02531e-05
-4.89229e-05 -2.23624e-05 -2.15994e-05
-1.68737e-05 -1.93287e-05 -2.23044e-05
8.10305e-06 -7.54099e-06 -1.5644e-05
2.23819e-05 -8.57866e-06 -1.47545e-05
3.11012e-05 -1.05717e-05 -1.31152e-05
3.14158e-05 -1.32341e-05 -1.10053e-05
2.62556e-05 -1.52328e-05 -9.36977e-06
1.93008e-05 -1.63871e-05 -8.3406e-06
4.51186e-06 -1.77176e-05 -6.95194e-06
-1.88196e-05 -1.82382e-05 -5.67239e-06
-4.43462e-05 -1.79359e-05 -4.97518e-06
-6.97588e-05 -1.72605e-05 -4.80865e-06
-9.35798e-05 -1.64834e-05 -5.11417e-06
-0.000114846 -1.57261e-05 -5.82895e-06
-0.000129039 -1.52033e-05 -6.61085e-06
-0.000137175 -1.48713e-05 -7.19341e-06
-0.000147275 -1.43978e-05 -8.13652e-06
-0.00015788 -1.38268e-05 -9.48312e-06
-0.000164729 -1.33014e-05 -1.07959e-05
-0.000167857 -1.29287e-05 -1.16837e-05
-0.000168535 -1.25633e-05 -1.25075e-05
-0.000168104 -1.22097e-05 -1.31842e-05
-0.000165695 -1.18658e-05 -1.37879e-05
-0.000160816 -1.14535e-05 -1.44101e-05
-0.00015412 -1.11425e-05 -1.48817e-05
-0.00014833 -1.10464e-05 -1.51488e-05
-0.00014415 -1.10463e-05 -1.53042e-05
-0.000137671 -1.11596e-05 -1.55092e-05
-0.000129263 -1.16761e-05 -1.57342e-05
-0.000121834 -1.25856e-05 -1.59566e-05
-0.000116011 -1.37895e-05 -1.62413e-05
-0.000111837 -1.49589e-05 -1.66812e-05
-0.000108176 -1.54571e-05 -1.73967e-05
-0.000104512 -1.47688e-05 -1.8216e-05
-0.000100347 -1.39595e-05 -1.88421e-05
-9.03877e-05 -1.23423e-05 -1.98608e-05
-7.15603e-05 -9.89284e-06 -2.12017e-05
-4.59791e-05 -7.9693e-06 -2.22417e-05
-1.58533e-05 -6.94897e-06 -2.28023e-05
9.73792e-06 8.8254e-06 -8.07746e-05
2.70299e-05 1.0148e-05 -7.66975e-05
3.79934e-05 1.27257e-05 -6.92374e-05
3.93069e-05 1.62432e-05 -5.97122e-05
3.4056e-05 1.89143e-05 -5.23237e-05
2.64994e-05 2.0423e-05 -4.76354e-05
1.02832e-05 2.20723e-05 -4.1222e-05
-1.51677e-05 2.25471e-05 -3.50637e-05
-4.27439e-05 2.20517e-05 -3.15336e-05
-7.00093e-05 2.11913e-05 -3.05405e-05
-9.54631e-05 2.02748e-05 -3.19005e-05
-0.000118096 1.94154e-05 -3.53704e-05
-0.000133124 1.88325e-05 -3.92729e-05
-0.000141658 1.84648e-05 -4.21995e-05
-0.000152093 1.7944e-05 -4.69536e-05
-0.000162798 1.73269e-05 -5.37295e-05
-0.000169343 1.67675e-05 -6.02426e-05
-0.000172072 1.63699e-05 -6.45255e-05
-0.000172228 1.5976e-05 -6.8425e-05
-0.000171251 1.55792e-05 -7.14619e-05
-0.00016832 1.51829e-05 -7.40825e-05
-0.00016282 1.46733e-05 -7.65687e-05
-0.000155628 1.42456e-05 -7.8283e-05
-0.000149537 1.40641e-05 -7.91775e-05
-0.000145202 1.40139e-05 -7.96852e-05
-0.000138564 1.40695e-05 -8.03541e-05
-0.000130062 1.45821e-05 -8.11619e-05
-0.000122745 1.55905e-05 -8.21378e-05
-0.000117327 1.70119e-05 -8.3588e-05
-0.000113949 1.84864e-05 -8.58636e-05
-0.00011149 1.9205e-05 -8.92991e-05
-0.000108814 1.83058e-05 -9.28467e-05
-0.000105138 1.71831e-05 -9.54576e-05
-9.53422e-05 1.49148e-05 -9.96024e-05
-7.59312e-05 1.16194e-05 -0.000104997
-4.89178e-05 9.1351e-06 -0.00010923
-1.68828e-05 7.8506e-06 -0.000111542
1.10606e-05 2.44707e-05 -7.75411e-05
3.09302e-05 2.83875e-05 -7.28358e-05
4.40886e-05 3.62179e-05 -6.41567e-05
4.63859e-05 4.73969e-05 -5.29785e-05
4.06348e-05 5.63564e-05 -4.43568e-05
3.17157e-05 6.13215e-05 -3.89916e-05
1.29571e-05 6.62248e-05 -3.18756e-05
-1.51883e-05 6.68116e-05 -2.55424e-05
-4.40997e-05 6.46959e-05 -2.21573e-05
-7.17862e-05 6.18069e-05 -2.1368e-05
-9.7239e-05 5.89563e-05 -2.29131e-05
-0.000119733 5.63806e-05 -2.65682e-05
-0.000134637 5.46674e-05 -3.06358e-05
-0.000143087 5.35943e-05 -3.36789e-05
-0.000153404 5.20838e-05 -3.861e-05
-0.000163975 5.03098e-05 -4.55929e-05
-0.000170433 4.8705e-05 -5.22639e-05
-0.000173128 4.75555e-05 -5.664e-05
-0.000173282 4.64097e-05 -6.06304e-05
-0.000172308 4.5238e-05 -6.37782e-05
-0.000169358 4.40588e-05 -6.65294e-05
-0.000163758 4.25198e-05 -6.92629e-05
-0.000156298 4.12059e-05 -7.12982e-05
-0.000149879 4.06284e-05 -7.24597e-05
-0.000145228 4.04567e-05 -7.31394e-05
-0.000137977 4.05981e-05 -7.40423e-05
-0.000128541 4.21495e-05 -7.50423e-05
-0.000120316 4.53132e-05 -7.60578e-05
-0.000114431 4.99888e-05 -7.74078e-05
-0.000111756 5.52872e-05 -7.95266e-05
-0.00011197 5.87003e-05 -8.29758e-05
-0.000112258 5.62586e-05 -8.69696e-05
-0.000110408 5.24046e-05 -9.00541e-05
-0.000101662 4.43831e-05 -9.5097e-05
-8.1711e-05 3.35202e-05 -0.000101696
-5.26867e-05 2.57741e-05 -0.000106796
-1.81673e-05 2.18919e-05 -0.000109546
1.36548e-05 3.43152e-05 -7.17989e-05
3.87771e-05 4.04925e-05 -6.58641e-05
5.70028e-05 5.35196e-05 -5.46889e-05
6.24318e-05 7.41736e-05 -3.98455e-05
5.59322e-05 9.37044e-05 -2.82238e-05
4.29673e-05 0.000104586 -2.12861e-05
1.74077e-05 0.000111542 -1.29059e-05
-1.66965e-05 0.000108777 -6.78752e-06
-4.77487e-05 0.000103061 -4.06041e-06
-7.5749e-05 9.73355e-05 -3.83238e-06
-0.000100889 9.23348e-05 -5.76411e-06
-0.000122956 8.8078e-05 -9.72275e-06
-0.000137555 8.53312e-05 -1.4034e-05
-0.000145818 8.36295e-05 -1.72418e-05
-0.000155881 8.12568e-05 -2.2409e-05
-0.000166177 7.85121e-05 -2.96089e-05
-0.000172481 7.60353e-05 -3.64028e-05
-0.000175133 7.42369e-05 -4.08568e-05
-0.000175318 7.24252e-05 -4.49455e-05
-0.000174385 7.05263e-05 -4.82864e-05
-0.000171431 6.85923e-05 -5.12962e-05
-0.000165673 6.60085e-05 -5.45811e-05
-0.000157712 6.37406e-05 -5.73597e-05
-0.00015065 6.2685e-05 -5.91456e-05
-0.000145357 6.23346e-05 -6.02263e-05
-0.000136824 6.24849e-05 -6.1668e-05
-0.000125347 6.50655e-05 -6.30829e-05
-0.000114906 7.06732e-05 -6.41325e-05
-0.000107353 7.96706e-05 -6.51249e-05
-0.000105238 9.15359e-05 -6.6586e-05
-0.000111333 0.000102769 -6.95242e-05
-0.000119778 0.000101272 -7.42652e-05
-0.000123541 9.18551e-05 -7.85254e-05
-0.0001169 7.23744e-05 -8.59363e-05
-9.45402e-05 5.08842e-05 -9.53766e-05
-6.05461e-05 3.73713e-05 -0.000102335
-2.0765e-05 3.10222e-05 -0.000105971
1.72379e-05 3.53656e-05 -6.49301e-05
5.01346e-05 4.26397e-05 -5.72962e-05
7.77696e-05 5.91765e-05 -4.23729e-05
9.3081e-05 9.04441e-05 -2.10413e-05
8.84388e-05 0.000133886 -2.52053e-06
6.27531e-05 0.000166807 8.11412e-06
1.94668e-05 0.000162326 1.71807e-05
-2.36693e-05 0.000146829 2.09335e-05
-5.55412e-05 0.000134525 2.16927e-05
-8.2512e-05 0.000125224 2.07352e-05
-0.000106497 0.000118028 1.81873e-05
-0.000127652 0.000112228 1.39065e-05
-0.000141703 0.00010857 9.40442e-06
-0.000149654 0.000106321 6.08739e-06
-0.000159313 0.000103208 8.1544e-07
-0.000169196 9.96487e-05 -6.27463e-06
-0.000175308 9.64369e-05 -1.28338e-05
-0.000177941 9.40724e-05 -1.71752e-05
-0.000178229 9.16675e-05 -2.12347e-05
-0.000177419 8.90941e-05 -2.48008e-05
-0.000174521 8.64469e-05 -2.81852e-05
-0.000168609 8.28376e-05 -3.23964e-05
-0.000159973 7.95817e-05 -3.64765e-05
-0.000151988 7.79682e-05 -3.93788e-05
-0.000145729 7.73698e-05 -4.11737e-05
-0.000135197 7.74089e-05 -4.35551e-05
-0.000120353 8.08564e-05 -4.56183e-05
-0.000105711 8.89343e-05 -4.65919e-05
-9.35682e-05 0.000103171 -4.6667e-05
-8.86578e-05 0.000125673 -4.61782e-05
-0.000102733 0.000158251 -4.62975e-05
-0.000133088 0.000178795 -5.08084e-05
-0.000155216 0.000144239 -5.82047e-05
-0.000149127 9.40643e-05 -7.17889e-05
-0.000116714 5.84343e-05 -8.67616e-05
-7.25486e-05 4.02098e-05 -9.67085e-05
-2.45164e-05 3.23936e-05 -0.000101633
2.00061e-05 3.05516e-05 -6.03159e-05
5.94747e-05 3.73748e-05 -5.137e-05
9.80478e-05 5.35545e-05 -3.32181e-05
0.000136986 8.79064e-05 -4.5951e-06
0.000156882 0.000157194 2.74019e-05
9.28142e-05 0.000272111 4.97658e-05
1.81923e-06 0.00020361 5.13905e-05
-3.92907e-05 0.000171047 4.84135e-05
-6.59008e-05 0.000153216 4.60244e-05
-8.98122e-05 0.00014144 4.35867e-05
-0.000112038 0.000132821 4.03914e-05
-0.000132138 0.000126007 3.589e-05
-0.000145623 0.000121716 3.13434e-05
-0.000153264 0.000119074 2.8032e-05
-0.000162522 0.000115416 2.28974e-05
-0.00017201 0.000111234 1.63534e-05
-0.000177961 0.00010745 1.0424e-05
-0.000180604 0.000104652 6.40324e-06
-0.000181024 0.000101801 2.53342e-06
-0.000180364 9.87362e-05 -1.1854e-06
-0.000177558 9.55759e-05 -4.90776e-06
-0.000171556 9.12368e-05 -1.00691e-05
-0.000162333 8.7268e-05 -1.55292e-05
-0.000153496 8.52245e-05 -1.96565e-05
-0.000146308 8.44147e-05 -2.22397e-05
-0.000133793 8.43007e-05 -2.56118e-05
-0.000115455 8.819e-05 -2.82318e-05
-9.58711e-05 9.7769e-05 -2.89318e-05
-7.63526e-05 0.000115552 -2.76791e-05
-5.97832e-05 0.000146682 -2.39875e-05
-6.42054e-05 0.000205673 -1.66951e-05
-0.000154394 0.000321634 -1.18512e-05
-0.000233468 0.00018659 -3.06402e-05
-0.000201855 9.64587e-05 -5.79986e-05
-0.000140475 5.44974e-05 -7.99499e-05
-8.30772e-05 3.58475e-05 -9.2695e-05
-2.7565e-05 2.82726e-05 -9.86734e-05
2.15722e-05 2.38305e-05 -5.77649e-05
6.47493e-05 2.91944e-05 -4.80857e-05
0.000109795 4.14908e-05 -2.8144e-05
0.000171084 6.45155e-05 4.72008e-06
0.000271268 9.86587e-05 4.90954e-05
-0.0116521 0.000299121 0.064401
-0.0476428 0.000196568 0.0643118
-0.0955223 0.000156285 0.063927
-0.142921 0.000137786 0.0629713
-0.189219 0.000126577 0.0609509
-0.233355 0.000118643 0.0571758
-0.273719 0.000112436 0.0508643
-0.300913 0.000108533 0.0438834
-0.316326 0.00010613 0.0386852
-0.334978 0.000102802 0.0306549
-0.354103 9.89891e-05 0.0206698
-0.366156 9.55314e-05 0.0117783
-0.371568 9.29718e-05 0.00573774
-0.372518 9.03619e-05 -0.000131587
-0.371276 8.75573e-05 -0.00597542
-0.365601 8.46643e-05 -0.0119656
-0.353258 8.06878e-05 -0.0207271
-0.33396 7.70367e-05 -0.0305302
-0.315258 7.5135e-05 -0.0384005
-0.299869 7.4368e-05 -0.0434917
-0.272795 7.42199e-05 -0.0503223
-0.232679 7.77207e-05 -0.0564808
-0.18887 8.65142e-05 -0.0601513
-0.142938 0.000103293 -0.0621078
-0.0959028 0.000134472 -0.0630278
-0.0483416 0.000201382 -0.0633828
-0.0124806 0.00035616 -0.0634086
-0.000394007 0.000121997 -8.29066e-06
-0.00024777 7.20475e-05 -4.98303e-05
-0.00015494 4.26716e-05 -7.61127e-05
-8.91705e-05 2.81974e-05 -9.04524e-05
-2.932e-05 2.21555e-05 -9.70294e-05
2.3246e-05 9.9556e-06 -5.50146e-05
7.00825e-05 1.21877e-05 -4.45703e-05
0.000118665 1.70682e-05 -2.29831e-05
0.00017135 2.40204e-05 1.18363e-05
0.000209276 1.90841e-05 5.0957e-05
-0.0117514 0.000130047 0.0643867
-0.0477003 8.7825e-05 0.0642882
-0.0955442 6.74907e-05 0.0639025
-0.142932 5.86147e-05 0.0629485
-0.189225 5.35785e-05 0.0609301
-0.233359 5.01349e-05 0.0571569
-0.273722 4.74858e-05 0.0508474
-0.300916 4.58368e-05 0.0438679
-0.316329 4.48254e-05 0.0386707
-0.334981 4.34285e-05 0.0306419
-0.354105 4.18326e-05 0.0206588
-0.366158 4.0384e-05 0.0117693
-0.37157 3.93072e-05 0.00573004
-0.372521 3.82067e-05 -0.0001381
-0.371278 3.70188e-05 -0.00598102
-0.365604 3.57913e-05 -0.0119704
-0.35326 3.40995e-05 -0.0207313
-0.333962 3.25422e-05 -0.0305344
-0.315259 3.17288e-05 -0.038405
-0.29987 3.1401e-05 -0.0434966
-0.272794 3.13396e-05 -0.0503279
-0.232675 3.28535e-05 -0.0564878
-0.188862 3.66901e-05 -0.0601607
-0.142922 4.41751e-05 -0.0621209
-0.0958679 5.86806e-05 -0.0630463
-0.0482583 9.06292e-05 -0.0634073
-0.0123525 0.000149933 -0.0634316
-0.000321487 2.30098e-05 -6.50801e-06
-0.000250878 2.67348e-05 -4.38421e-05
-0.00016613 1.76084e-05 -7.22373e-05
-9.54176e-05 1.1809e-05 -8.8047e-05
-3.12188e-05 9.27676e-06 -9.52519e-05
2.32463e-05 -1.00311e-05 -5.50188e-05
7.00842e-05 -1.22624e-05 -4.45746e-05
0.000118671 -1.71392e-05 -2.29871e-05
0.000171366 -2.40781e-05 1.18342e-05
0.000209304 -1.91085e-05 5.09598e-05
-0.0117514 -0.000130355 0.0643867
-0.0477003 -8.80824e-05 0.0642882
-0.0955442 -6.77286e-05 0.0639025
-0.142932 -5.8851e-05 0.0629485
-0.189225 -5.38157e-05 0.0609301
-0.233359 -5.03681e-05 0.0571569
-0.273722 -4.77075e-05 0.0508474
-0.300916 -4.6045e-05 0.0438679
-0.316329 -4.50236e-05 0.0386707
-0.334981 -4.36105e-05 0.0306419
-0.354105 -4.19926e-05 0.0206588
-0.366158 -4.05239e-05 0.0117693
-0.37157 -3.94347e-05 0.00573004
-0.372521 -3.83235e-05 -0.0001381
-0.371278 -3.71286e-05 -0.00598102
-0.365604 -3.5896e-05 -0.0119704
-0.35326 -3.42023e-05 -0.0207313
-0.333962 -3.26479e-05 -0.0305344
-0.315259 -3.18397e-05 -0.038405
-0.29987 -3.15161e-05 -0.0434966