<?xml version="1.0"?>
<VTKFile type="RectilinearGrid" version="0.1" byte_order="LittleEndian">
<RectilinearGrid WholeExtent="0 37 0 14 0 34">
<Piece Extent="0 37 0 14 0 34">
<PointData>
</PointData>
<CellData>
<DataArray type="Float32" Name="Flussdichte" NumberOfComponents="3" format="ascii">
8.10574e-06 7.53053e-06 -1.56363e-05
2.23898e-05 8.56769e-06 -1.4746e-05
3.11136e-05 1.05596e-05 -1.31052e-05
3.14321e-05 1.32205e-05 -1.09933e-05
2.62739e-05 1.52176e-05 -9.3557e-06
1.932e-05 1.6371e-05 -8.32502e-06
4.53094e-06 1.77e-05 -6.93395e-06
-1.88031e-05 1.8219e-05 -5.65104e-06
-4.43359e-05 1.79157e-05 -4.95095e-06
-6.97578e-05 1.72398e-05 -4.7827e-06
-9.35896e-05 1.64629e-05 -5.08815e-06
-0.000114866 1.57063e-05 -5.8046e-06
-0.000129066 1.51845e-05 -6.58871e-06
-0.000137204 1.48532e-05 -7.17294e-06
-0.000147306 1.43809e-05 -8.11872e-06
-0.000157911 1.38116e-05 -9.46881e-06
-0.000164757 1.32878e-05 -1.07846e-05
-0.000167881 1.29161e-05 -1.16741e-05
-0.000168554 1.25517e-05 -1.24993e-05
-0.000168118 1.21986e-05 -1.31768e-05
-0.000165703 1.18552e-05 -1.37811e-05
-0.000160817 1.14432e-05 -1.44033e-05
-0.000154114 1.11319e-05 -1.48741e-05
-0.00014832 1.10355e-05 -1.51402e-05
-0.000144138 1.10351e-05 -1.52948e-05
-0.000137657 1.11479e-05 -1.54985e-05
-0.000129249 1.16637e-05 -1.57216e-05
-0.000121821 1.25725e-05 -1.59423e-05
-0.000116001 1.37759e-05 -1.6226e-05
-0.000111831 1.49452e-05 -1.66656e-05
-0.000108172 1.54436e-05 -1.73817e-05
-0.000104511 1.4756e-05 -1.8202e-05
-0.000100347 1.39471e-05 -1.88287e-05
-9.03886e-05 1.23307e-05 -1.98485e-05
-7.1562e-05 9.88207e-06 -2.11908e-05
-4.59806e-05 7.95913e-06 -2.22318e-05
-1.58539e-05 6.9391e-06 -2.2793e-05
9.1429e-06 2.08481e-05 -1.493e-05
2.54189e-05 2.38862e-05 -1.38839e-05
3.57664e-05 2.98286e-05 -1.19238e-05
3.67558e-05 3.80106e-05 -9.34453e-06
3.12434e-05 4.43491e-05 -7.33929e-06
2.33987e-05 4.79717e-05 -6.1148e-06
6.82204e-06 5.19683e-05 -4.54907e-06
-1.85874e-05 5.31186e-05 -3.29025e-06
-4.5315e-05 5.18636e-05 -2.69493e-06
-7.12106e-05 4.96653e-05 -2.62734e-06
-9.51232e-05 4.72889e-05 -3.0089e-06
-0.000116318 4.50349e-05 -3.78143e-06
-0.000130424 4.34972e-05 -4.59886e-06
-0.000138496 4.25239e-05 -5.20296e-06
-0.000148505 4.11388e-05 -6.17516e-06
-0.000159004 3.94717e-05 -7.55134e-06
-0.000165776 3.79373e-05 -8.88658e-06
-0.000168863 3.68452e-05 -9.79017e-06
-0.000169511 3.57719e-05 -1.06315e-05
-0.000169046 3.47259e-05 -1.13328e-05
-0.000166573 3.37047e-05 -1.19659e-05
-0.00016154 3.24668e-05 -1.26413e-05
-0.000154554 3.15147e-05 -1.31757e-05
-0.000148449 3.11992e-05 -1.34883e-05
-0.000143988 3.11777e-05 -1.36699e-05
-0.000136991 3.1485e-05 -1.39049e-05
-0.000127824 3.30061e-05 -1.41298e-05
-0.000119709 3.57766e-05 -1.42961e-05
-0.000113628 3.95968e-05 -1.44609e-05
-0.000110163 4.35749e-05 -1.4734e-05
-0.000108591 4.56946e-05 -1.533e-05
-0.000107046 4.37334e-05 -1.62657e-05
-0.00010412 4.11508e-05 -1.70636e-05
-9.49924e-05 3.58759e-05 -1.8439e-05
-7.59336e-05 2.81729e-05 -2.02432e-05
-4.89235e-05 2.2333e-05 -2.15904e-05
-1.6874e-05 1.93001e-05 -2.22959e-05
1.11439e-05 2.91517e-05 -1.36603e-05
3.13702e-05 3.38453e-05 -1.22907e-05
4.5238e-05 4.33728e-05 -9.62013e-06
4.80655e-05 5.74113e-05 -5.87341e-06
4.19704e-05 6.93439e-05 -2.80621e-06
3.18938e-05 7.6123e-05 -1.04319e-06
1.10101e-05 8.26386e-05 8.42405e-07
-1.89078e-05 8.29547e-05 1.81795e-06
-4.77892e-05 7.97552e-05 2.04857e-06
-7.43325e-05 7.56462e-05 1.84005e-06
-9.822e-05 7.16282e-05 1.27597e-06
-0.00011917 6.79714e-05 3.84015e-07
-0.000133063 6.551e-05 -4.95813e-07
-0.000140997 6.3956e-05 -1.13442e-06
-0.00015082 6.1747e-05 -2.14865e-06
-0.000161112 5.90875e-05 -3.55706e-06
-0.000167747 5.6635e-05 -4.91127e-06
-0.000170768 5.4882e-05 -5.83201e-06
-0.00017138 5.31534e-05 -6.69683e-06
-0.000170874 5.14532e-05 -7.4429e-06
-0.000168302 4.97827e-05 -8.13332e-06
-0.000163007 4.77211e-05 -8.91972e-06
-0.000155487 4.60798e-05 -9.58792e-06
-0.000148783 4.54639e-05 -9.99693e-06
-0.000143771 4.53541e-05 -1.02334e-05
-0.000135727 4.57397e-05 -1.05276e-05
-0.000124957 4.81116e-05 -1.07343e-05
-0.00011523 5.27294e-05 -1.07405e-05
-0.000108203 5.95913e-05 -1.05575e-05
-0.000105733 6.76742e-05 -1.02769e-05
-0.000108668 7.35864e-05 -1.02876e-05
-0.000112291 7.09788e-05 -1.137e-05
-0.000112546 6.59523e-05 -1.26902e-05
-0.000105125 5.54507e-05 -1.52082e-05
-8.51049e-05 4.16837e-05 -1.82741e-05
-5.48534e-05 3.2023e-05 -2.03548e-05
-1.88869e-05 2.72144e-05 -2.13793e-05
1.38365e-05 2.99451e-05 -1.21135e-05
3.96401e-05 3.53444e-05 -1.02581e-05
5.93325e-05 4.68715e-05 -6.38909e-06
6.67044e-05 6.57972e-05 -2.01364e-07
6.07118e-05 8.57548e-05 5.94839e-06
4.56444e-05 9.84906e-05 9.41055e-06
1.58256e-05 0.000105915 1.12164e-05
-2.14708e-05 0.000102221 1.07948e-05
-5.26235e-05 9.58443e-05 1.00172e-05
-7.93376e-05 8.97054e-05 9.2033e-06
-0.000102798 8.4312e-05 8.28572e-06
-0.000123257 7.95653e-05 7.18593e-06
-0.000136814 7.63634e-05 6.21282e-06
-0.000144549 7.43316e-05 5.52818e-06
-0.00015411 7.14274e-05 4.46669e-06
-0.000164116 6.7901e-05 3.04401e-06
-0.000170566 6.46355e-05 1.69551e-06
-0.000173505 6.22961e-05 7.67167e-07
-0.000174083 5.99852e-05 -1.19508e-07
-0.000173541 5.76974e-05 -9.29205e-07
-0.000170862 5.54351e-05 -1.70603e-06
-0.000165243 5.258e-05 -2.66627e-06
-0.000157017 5.01915e-05 -3.54241e-06
-0.00014949 4.91323e-05 -4.09481e-06
-0.000143694 4.88001e-05 -4.4077e-06
-0.000134105 4.90031e-05 -4.77112e-06
-0.000120835 5.17236e-05 -4.88208e-06
-0.000108229 5.76504e-05 -4.50852e-06
-9.86836e-05 6.74125e-05 -3.50841e-06
-9.61679e-05 8.09285e-05 -1.71833e-06
-0.000106155 9.4949e-05 5.87962e-07
-0.000120576 9.48528e-05 2.58144e-07
-0.000128175 8.4523e-05 -2.93463e-06
-0.000122762 6.55592e-05 -9.20778e-06
-9.93613e-05 4.60697e-05 -1.52247e-05
-6.33929e-05 3.39438e-05 -1.86731e-05
-2.16827e-05 2.82429e-05 -2.02188e-05
1.58665e-05 2.58168e-05 -1.10561e-05
4.61325e-05 3.08347e-05 -8.79806e-06
7.16012e-05 4.18899e-05 -3.77843e-06
8.6877e-05 6.14349e-05 5.62751e-06
8.5717e-05 8.69151e-05 1.90726e-05
6.18594e-05 0.000111669 2.95179e-05
1.6868e-05 0.000115082 2.65134e-05
-2.71014e-05 0.000105911 2.2311e-05
-5.83847e-05 9.70487e-05 1.98646e-05
-8.4233e-05 8.98807e-05 1.82113e-05
-0.00010697 8.39599e-05 1.68214e-05
-0.000126954 7.87629e-05 1.54467e-05
-0.00014025 7.51681e-05 1.4357e-05
-0.000147837 7.28564e-05 1.36181e-05
-0.000157191 6.95141e-05 1.25063e-05
-0.000166957 6.53991e-05 1.1081e-05
-0.000173241 6.15743e-05 9.75019e-06
-0.000176103 5.88409e-05 8.81729e-06
-0.000176655 5.61443e-05 7.90854e-06
-0.000176091 5.34755e-05 7.02976e-06
-0.000173346 5.08274e-05 6.16029e-06
-0.000167499 4.74268e-05 5.02186e-06
-0.00015872 4.44537e-05 3.94683e-06
-0.000150518 4.29475e-05 3.2752e-06
-0.000144047 4.23304e-05 2.9107e-06
-0.000133078 4.2146e-05 2.53216e-06
-0.000117441 4.45555e-05 2.64685e-06
-0.000101713 5.06085e-05 3.61553e-06
-8.83645e-05 6.1527e-05 5.83343e-06
-8.26892e-05 7.86869e-05 1.01674e-05
-9.76203e-05 0.000101526 1.83276e-05
-0.000129953 0.000110171 2.58772e-05
-0.000150911 8.8011e-05 1.41783e-05
-0.000143115 6.26572e-05 -2.0468e-06
-0.000112381 4.18868e-05 -1.24534e-05
-7.03583e-05 2.99571e-05 -1.7371e-05
-2.38615e-05 2.45439e-05 -1.93911e-05
1.70221e-05 2.01353e-05 -1.04696e-05
4.98408e-05 2.41297e-05 -7.98775e-06
7.87222e-05 3.28708e-05 -2.33758e-06
0.000100188 4.78469e-05 8.96115e-06
0.000110787 6.5782e-05 2.94902e-05
7.80787e-05 8.28803e-05 0.000134894
1.38634e-05 8.27607e-05 9.39188e-05
-3.23645e-05 7.4784e-05 7.43521e-05
-6.25592e-05 6.79943e-05 6.53137e-05
-8.75138e-05 6.27486e-05 5.97866e-05
-0.000109747 5.84693e-05 5.53964e-05
-0.000129484 5.46854e-05 5.11928e-05
-0.000142667 5.2027e-05 4.79143e-05
-0.000150185 5.03051e-05 4.57046e-05
-0.000159423 4.78003e-05 4.2403e-05
-0.000169033 4.46926e-05 3.82264e-05
-0.000175192 4.17982e-05 3.43505e-05
-0.000177991 3.97342e-05 3.16199e-05
-0.000178517 3.77016e-05 2.89431e-05
-0.000177935 3.56965e-05 2.63048e-05
-0.000175155 3.37075e-05 2.36662e-05
-0.000169182 3.11446e-05 2.01351e-05
-0.000160075 2.88741e-05 1.6735e-05
-0.000151454 2.76765e-05 1.45738e-05
-0.000144551 2.71523e-05 1.33924e-05
-0.000132681 2.68946e-05 1.21576e-05
-0.000115472 2.84586e-05 1.25145e-05
-9.75715e-05 3.26737e-05 1.5658e-05
-8.12047e-05 4.05374e-05 2.30262e-05
-7.16753e-05 5.34014e-05 3.83183e-05
-8.61274e-05 7.18122e-05 7.25691e-05
-0.000140099 8.18131e-05 0.00014051
-0.000174817 6.69352e-05 2.96549e-05
-0.000156834 4.91715e-05 2.39789e-06
-0.000120051 3.30958e-05 -1.08616e-05
-7.43861e-05 2.35637e-05 -1.66326e-05
-2.51155e-05 1.92139e-05 -1.8926e-05
1.82845e-05 8.41209e-06 -9.83754e-06
5.38301e-05 1.00954e-05 -7.13123e-06
8.58287e-05 1.37322e-05 -9.72475e-07
0.000109389 1.95736e-05 1.07797e-05
0.000116765 2.43983e-05 2.73135e-05
7.92777e-05 2.51722e-05 9.72684e-05
1.22682e-05 2.52167e-05 5.61981e-05
-3.55447e-05 2.30332e-05 3.98882e-05
-6.5324e-05 2.09769e-05 3.39237e-05
-8.97363e-05 1.93469e-05 3.08349e-05
-0.000111628 1.80136e-05 2.84395e-05
-0.000131185 1.68399e-05 2.59926e-05
-0.000144283 1.60201e-05 2.39414e-05
-0.000151751 1.54902e-05 2.25252e-05
-0.000160911 1.47199e-05 2.03768e-05
-0.000170421 1.3763e-05 1.76332e-05
-0.0001765 1.28702e-05 1.50944e-05
-0.000179255 1.22332e-05 1.33177e-05
-0.000179761 1.16062e-05 1.15797e-05
-0.000179163 1.09895e-05 9.86457e-06
-0.000176352 1.03791e-05 8.13968e-06
-0.000170282 9.59749e-06 5.77828e-06
-0.000160943 8.912e-06 3.40388e-06
-0.000152033 8.55803e-06 1.77222e-06
-0.000144839 8.40754e-06 8.15881e-07
-0.000132361 8.34579e-06 -3.26583e-07
-0.000114091 8.85407e-06 -7.30307e-07
-9.47252e-05 1.01868e-05 4.19238e-07
-7.63986e-05 1.26486e-05 4.10451e-06
-6.474e-05 1.65943e-05 1.34959e-05
-7.95579e-05 2.18946e-05 3.9829e-05
-0.000137197 2.44865e-05 0.000103928
-0.000179039 2.46892e-05 2.89656e-05
-0.000166076 2.0155e-05 5.08931e-06
-0.000127751 1.38704e-05 -9.33188e-06
-7.87558e-05 9.88474e-06 -1.58446e-05
-2.64968e-05 8.0427e-06 -1.84203e-05
1.82847e-05 -8.48118e-06 -9.83841e-06
5.38311e-05 -1.0164e-05 -7.13204e-06
8.58315e-05 -1.37987e-05 -9.72953e-07
0.000109395 -1.96343e-05 1.07805e-05
0.000116775 -2.44485e-05 2.73171e-05
7.92862e-05 -2.52121e-05 9.7284e-05
1.22711e-05 -2.5251e-05 5.62102e-05
-3.55443e-05 -2.30665e-05 3.98994e-05
-6.5324e-05 -2.10105e-05 3.39349e-05
-8.97363e-05 -1.93806e-05 3.08461e-05
-0.000111628 -1.80469e-05 2.84505e-05
-0.000131184 -1.68718e-05 2.60032e-05
-0.000144282 -1.60505e-05 2.39514e-05
-0.00015175 -1.55194e-05 2.25348e-05
-0.00016091 -1.47472e-05 2.03859e-05
-0.00017042 -1.37877e-05 1.76414e-05
-0.000176499 -1.28923e-05 1.51017e-05
-0.000179255 -1.22536e-05 1.33245e-05
-0.000179761 -1.16252e-05 1.1586e-05
-0.000179162 -1.10075e-05 9.8706e-06
-0.000176352 -1.03964e-05 8.14546e-06
-0.000170282 -9.61445e-06 5.78395e-06
-0.000160943 -8.92919e-06 3.40961e-06
-0.000152034 -8.57577e-06 1.77813e-06
-0.000144839 -8.42575e-06 8.21942e-07
-0.000132361 -8.36481e-06 -3.20257e-07
-0.000114092 -8.87439e-06 -7.23561e-07
-9.47257e-05 -1.02084e-05 4.26428e-07
-7.63992e-05 -1.26716e-05 4.11217e-06
-6.47411e-05 -1.66189e-05 1.35041e-05
-7.9561e-05 -2.19219e-05 3.98386e-05
-0.000137205 -2.45202e-05 0.000103941
-0.00017905 -2.47329e-05 2.89687e-05
-0.000166083 -2.02098e-05 5.08975e-06
-0.000127755 -1.39326e-05 -9.33261e-06
-7.87573e-05 -9.9503e-06 -1.58456e-05
-2.64972e-05 -8.10952e-06 -1.84214e-05
1.70224e-05 -2.02028e-05 -1.04718e-05
4.98422e-05 -2.41973e-05 -7.98988e-06
7.87267e-05 -3.29385e-05 -2.33919e-06
0.000100199 -4.79136e-05 8.96196e-06
0.000110808 -6.58474e-05 2.94989e-05
7.80956e-05 -8.29465e-05 0.000134946
1.38684e-05 -8.28257e-05 9.39639e-05
-3.23642e-05 -7.48497e-05 7.43962e-05
-6.25596e-05 -6.80614e-05 6.53582e-05
-8.75136e-05 -6.28163e-05 5.98314e-05
-0.000109746 -5.85361e-05 5.54405e-05
-0.000129482 -5.47495e-05 5.12352e-05
-0.000142664 -5.20879e-05 4.79546e-05
-0.000150182 -5.03636e-05 4.57434e-05
-0.000159419 -4.78548e-05 4.24392e-05
-0.000169029 -4.47417e-05 3.82591e-05
-0.000175189 -4.18421e-05 3.43798e-05
-0.000177988 -3.97749e-05 3.16471e-05
-0.000178515 -3.77394e-05 2.89684e-05
-0.000177934 -3.57323e-05 2.63287e-05
-0.000175154 -3.37417e-05 2.36891e-05
-0.000169182 -3.11782e-05 2.01576e-05
-0.000160076 -2.89082e-05 1.67578e-05
-0.000151455 -2.77117e-05 1.45973e-05
-0.000144553 -2.71884e-05 1.34165e-05
-0.000132682 -2.69325e-05 1.21829e-05
-0.000115474 -2.84992e-05 1.25415e-05
-9.75732e-05 -3.27169e-05 1.56868e-05
-8.12066e-05 -4.05832e-05 2.30567e-05
-7.16781e-05 -5.34497e-05 3.83507e-05
-8.61342e-05 -7.18637e-05 7.2605e-05
-0.000140116 -8.18683e-05 0.000140554
-0.000174838 -6.69915e-05 2.96621e-05
-0.000156847 -4.92311e-05 2.39798e-06
-0.000120057 -3.31587e-05 -1.08638e-05
-7.43889e-05 -2.36282e-05 -1.66353e-05
-2.51163e-05 -1.92791e-05 -1.89287e-05
1.58667e-05 -2.58818e-05 -1.10591e-05
4.61336e-05 -3.09006e-05 -8.80114e-06
7.16051e-05 -4.19575e-05 -3.7811e-06
8.68866e-05 -6.1506e-05 5.62692e-06
8.57311e-05 -8.69927e-05 1.90776e-05
6.18708e-05 -0.000111755 2.95294e-05
1.6872e-05 -0.000115172 2.65257e-05
-2.71021e-05 -0.000106004 2.23232e-05
-5.83858e-05 -9.71444e-05 1.98767e-05
-8.42327e-05 -8.99776e-05 1.82232e-05
-0.000106967 -8.40555e-05 1.68332e-05
-0.000126949 -7.88546e-05 1.54581e-05
-0.000140244 -7.52551e-05 1.4368e-05
-0.00014783 -7.294e-05 1.36286e-05
-0.000157184 -6.9592e-05 1.25164e-05
-0.00016695 -6.5469e-05 1.10903e-05
-0.000173234 -6.16367e-05 9.75866e-06
-0.000176097 -5.88986e-05 8.82523e-06
-0.00017665 -5.61979e-05 7.916e-06
-0.000176088 -5.35262e-05 7.03688e-06
-0.000173344 -5.08759e-05 6.16713e-06
-0.000167498 -4.74744e-05 5.02854e-06
-0.000158722 -4.4502e-05 3.95353e-06
-0.00015052 -4.29976e-05 3.28204e-06
-0.00014405 -4.23818e-05 2.91767e-06
-0.000133081 -4.21999e-05 2.53933e-06
-0.000117445 -4.46133e-05 2.65439e-06
-0.000101717 -5.06701e-05 3.62346e-06
-8.8368e-05 -6.15921e-05 5.84179e-06
-8.26936e-05 -7.87551e-05 1.01764e-05
-9.76288e-05 -0.000101597 1.83373e-05
-0.000129968 -0.000110243 2.58865e-05
-0.000150929 -8.8077e-05 1.4182e-05
-0.000143128 -6.27201e-05 -2.04822e-06
-0.000112387 -4.19492e-05 -1.24568e-05
-7.03613e-05 -3.00196e-05 -1.73748e-05
-2.38623e-05 -2.46065e-05 -1.9395e-05
1.38362e-05 -3.00039e-05 -1.21179e-05
3.96397e-05 -3.54048e-05 -1.02627e-05
5.93334e-05 -4.69353e-05 -6.39365e-06
6.67078e-05 -6.58673e-05 -2.05216e-07
6.07163e-05 -8.58331e-05 5.94625e-06
4.56473e-05 -9.85753e-05 9.40964e-06
1.58249e-05 -0.000106006 1.1216e-05
-2.14743e-05 -0.000102318 1.07935e-05
-5.26264e-05 -9.59451e-05 1.0015e-05
-7.93374e-05 -8.98078e-05 9.20038e-06
-0.000102794 -8.44132e-05 8.28264e-06
-0.000123248 -7.96625e-05 7.18328e-06
-0.000136802 -7.64557e-05 6.21078e-06
-0.000144537 -7.44201e-05 5.52659e-06
-0.000154096 -7.15098e-05 4.46578e-06
-0.000164103 -6.7975e-05 3.04394e-06
-0.000170554 -6.47015e-05 1.69607e-06
-0.000173495 -6.2357e-05 7.68052e-07
-0.000174075 -6.00417e-05 -1.18381e-07
-0.000173535 -5.77508e-05 -9.27979e-07
-0.000170858 -5.54863e-05 -1.70477e-06
-0.000165243 -5.26301e-05 -2.66511e-06
-0.000157019 -5.02425e-05 -3.54149e-06
-0.000149495 -4.91851e-05 -4.09418e-06
-0.000143699 -4.88544e-05 -4.40728e-06
-0.000134111 -4.906e-05 -4.77106e-06
-0.000120841 -5.17846e-05 -4.88253e-06
-0.000108236 -5.77154e-05 -4.50941e-06
-9.86896e-05 -6.74808e-05 -3.50952e-06
-9.61742e-05 -8.09992e-05 -1.71939e-06
-0.000106164 -9.50205e-05 5.8705e-07
-0.000120587 -9.49221e-05 2.56527e-07
-0.000128187 -8.4589e-05 -2.93751e-06
-0.000122771 -6.56207e-05 -9.21242e-06
-9.93671e-05 -4.61281e-05 -1.52301e-05
-6.33956e-05 -3.40007e-05 -1.86786e-05
-2.16834e-05 -2.82993e-05 -2.02243e-05
1.11426e-05 -2.91986e-05 -1.36663e-05
3.13668e-05 -3.3894e-05 -1.22971e-05
4.52331e-05 -4.34256e-05 -9.62722e-06
4.80598e-05 -5.74707e-05 -5.88131e-06
4.1964e-05 -6.94102e-05 -2.81472e-06
3.18864e-05 -7.61941e-05 -1.05221e-06
1.10012e-05 -8.27161e-05 8.32287e-07
-1.89169e-05 -8.30384e-05 1.80575e-06
-4.77953e-05 -7.9843e-05 2.03437e-06
-7.43327e-05 -7.57358e-05 1.82459e-06
-9.82129e-05 -7.1717e-05 1.2604e-06
-0.000119156 -6.80566e-05 3.69601e-07
-0.000133044 -6.55909e-05 -5.08709e-07
-0.000140977 -6.40337e-05 -1.14619e-06
-0.000150798 -6.18194e-05 -2.15863e-06
-0.000161091 -5.91526e-05 -3.56478e-06
-0.000167728 -5.66931e-05 -4.91708e-06
-0.000170752 -5.49356e-05 -5.83677e-06
-0.000171367 -5.32032e-05 -6.70071e-06
-0.000170865 -5.15003e-05 -7.44631e-06
-0.000168297 -4.98278e-05 -8.13642e-06
-0.000163006 -4.77653e-05 -8.92291e-06
-0.000155491 -4.61247e-05 -9.59161e-06
-0.00014879 -4.55104e-05 -1.00013e-05
-0.000143779 -4.54018e-05 -1.02383e-05
-0.000135736 -4.57898e-05 -1.05334e-05
-0.000124968 -4.81651e-05 -1.07413e-05
-0.00011524 -5.27862e-05 -1.07487e-05
-0.000108211 -5.96506e-05 -1.05665e-05
-0.00010574 -6.77348e-05 -1.0286e-05
-0.000108674 -7.36464e-05 -1.02965e-05
-0.000112298 -7.10363e-05 -1.13786e-05
-0.000112552 -6.60075e-05 -1.26988e-05
-0.00010513 -5.55022e-05 -1.52167e-05
-8.51076e-05 -4.17315e-05 -1.82822e-05
-5.48544e-05 -3.20686e-05 -2.03624e-05
-1.88871e-05 -2.7259e-05 -2.13866e-05
9.14075e-06 -2.08784e-05 -1.49372e-05
2.54127e-05 -2.3918e-05 -1.38917e-05
3.57567e-05 -2.98633e-05 -1.19327e-05
3.67433e-05 -3.80498e-05 -9.35521e-06
3.12292e-05 -4.43928e-05 -7.35162e-06
2.33836e-05 -4.80183e-05 -6.12835e-06
6.80658e-06 -5.20192e-05 -4.56463e-06
-1.86013e-05 -5.3174e-05 -3.30877e-06
-4.53238e-05 -5.19218e-05 -2.71607e-06
-7.12113e-05 -4.97248e-05 -2.65007e-06
-9.51143e-05 -4.73479e-05 -3.03172e-06
-0.0001163 -4.50917e-05 -3.80272e-06
-0.000130401 -4.35512e-05 -4.61813e-06
-0.00013847 -4.25758e-05 -5.22072e-06
-0.000148477 -4.11873e-05 -6.19051e-06
-0.000158976 -3.95153e-05 -7.56357e-06
-0.000165751 -3.79763e-05 -8.89615e-06
-0.000168841 -3.68812e-05 -9.79823e-06
-0.000169494 -3.58054e-05 -1.06383e-05
-0.000169034 -3.47576e-05 -1.13389e-05
-0.000166566 -3.3735e-05 -1.19716e-05
-0.00016154 -3.24965e-05 -1.2647e-05
-0.00015456 -3.15448e-05 -1.31821e-05
-0.000148458 -3.12304e-05 -1.34955e-05
-0.000143999 -3.12098e-05 -1.36779e-05
-0.000137004 -3.15185e-05 -1.39141e-05
-0.000127838 -3.30418e-05 -1.41406e-05
-0.000119721 -3.58144e-05 -1.43086e-05
-0.000113638 -3.9636e-05 -1.44743e-05
-0.00011017 -4.36147e-05 -1.47476e-05
-0.000108595 -4.57337e-05 -1.53432e-05
-0.000107049 -4.37708e-05 -1.62781e-05
-0.000104123 -4.11868e-05 -1.70755e-05
-9.49936e-05 -3.59096e-05 -1.84501e-05
-7.59335e-05 -2.8204e-05 -2.02532e-05
-4.8923e-05 -2.23625e-05 -2.15995e-05
-1.68737e-05 -1.93287e-05 -2.23045e-05
8.10307e-06 -7.54102e-06 -1.56441e-05
2.2382e-05 -8.57869e-06 -1.47545e-05
3.11013e-05 -1.05717e-05 -1.31152e-05
3.1416e-05 -1.32341e-05 -1.10054e-05
2.62557e-05 -1.52328e-05 -9.36981e-06
1.93009e-05 -1.63871e-05 -8.34064e-06
4.51196e-06 -1.77177e-05 -6.95198e-06
-1.88196e-05 -1.82382e-05 -5.67242e-06
-4.43461e-05 -1.7936e-05 -4.97521e-06
-6.97588e-05 -1.72606e-05 -4.80868e-06
-9.35798e-05 -1.64834e-05 -5.1142e-06
-0.000114846 -1.57261e-05 -5.82898e-06
-0.000129039 -1.52033e-05 -6.61088e-06
-0.000137175 -1.48713e-05 -7.19344e-06
-0.000147275 -1.43979e-05 -8.13655e-06
-0.00015788 -1.38269e-05 -9.48314e-06
-0.000164729 -1.33015e-05 -1.0796e-05
-0.000167857 -1.29288e-05 -1.16837e-05
-0.000168536 -1.25634e-05 -1.25075e-05
-0.000168104 -1.22097e-05 -1.31842e-05
-0.000165695 -1.18658e-05 -1.37879e-05
-0.000160816 -1.14536e-05 -1.44102e-05
-0.00015412 -1.11425e-05 -1.48818e-05
-0.00014833 -1.10464e-05 -1.51489e-05
-0.00014415 -1.10463e-05 -1.53042e-05
-0.000137671 -1.11597e-05 -1.55092e-05
-0.000129264 -1.16761e-05 -1.57343e-05
-0.000121834 -1.25856e-05 -1.59567e-05
-0.000116012 -1.37895e-05 -1.62414e-05
-0.000111838 -1.4959e-05 -1.66812e-05
-0.000108176 -1.54571e-05 -1.73967e-05
-0.000104513 -1.47689e-05 -1.82161e-05
-0.000100348 -1.39595e-05 -1.88421e-05
-9.03879e-05 -1.23424e-05 -1.98608e-05
-7.15605e-05 -9.89287e-06 -2.12018e-05
-4.59792e-05 -7.96932e-06 -2.22417e-05
-1.58534e-05 -6.94899e-06 -2.28024e-05
9.73795e-06 8.82542e-06 -8.07749e-05
2.703e-05 1.01481e-05 -7.66977e-05
3.79936e-05 1.27257e-05 -6.92376e-05
3.9307e-05 1.62432e-05 -5.97124e-05
3.40561e-05 1.89144e-05 -5.23239e-05
2.64995e-05 2.0423e-05 -4.76355e-05
1.02833e-05 2.20723e-05 -4.12222e-05
-1.51676e-05 2.25472e-05 -3.50639e-05
-4.27439e-05 2.20517e-05 -3.15338e-05
-7.00093e-05 2.11913e-05 -3.05407e-05
-9.54631e-05 2.02748e-05 -3.19006e-05
-0.000118096 1.94154e-05 -3.53705e-05
-0.000133125 1.88325e-05 -3.9273e-05
-0.000141658 1.84648e-05 -4.21997e-05
-0.000152093 1.79441e-05 -4.69537e-05
-0.000162798 1.73269e-05 -5.37296e-05
-0.000169343 1.67676e-05 -6.02427e-05
-0.000172073 1.63699e-05 -6.45257e-05
-0.000172228 1.5976e-05 -6.84251e-05
-0.000171251 1.55793e-05 -7.1462e-05
-0.00016832 1.51829e-05 -7.40827e-05
-0.000162821 1.46734e-05 -7.65689e-05
-0.000155628 1.42457e-05 -7.82831e-05
-0.000149537 1.40641e-05 -7.91777e-05
-0.000145202 1.40139e-05 -7.96854e-05
-0.000138564 1.40695e-05 -8.03543e-05
-0.000130063 1.45821e-05 -8.11621e-05
-0.000122746 1.55905e-05 -8.2138e-05
-0.000117327 1.70119e-05 -8.35882e-05
-0.00011395 1.84864e-05 -8.58638e-05
-0.00011149 1.92051e-05 -8.92993e-05
-0.000108814 1.83058e-05 -9.28469e-05
-0.000105138 1.71831e-05 -9.54578e-05
-9.53424e-05 1.49149e-05 -9.96027e-05
-7.59314e-05 1.16194e-05 -0.000104997
-4.8918e-05 9.13512e-06 -0.00010923
-1.68829e-05 7.85062e-06 -0.000111542
1.10606e-05 2.44707e-05 -7.75413e-05
3.09303e-05 2.83876e-05 -7.2836e-05
4.40887e-05 3.6218e-05 -6.41569e-05
4.63861e-05 4.7397e-05 -5.29787e-05
4.06349e-05 5.63565e-05 -4.43569e-05
3.17158e-05 6.13217e-05 -3.89918e-05
1.29572e-05 6.62249e-05 -3.18758e-05
-1.51882e-05 6.68118e-05 -2.55425e-05
-4.40997e-05 6.46961e-05 -2.21574e-05
-7.17862e-05 6.1807e-05 -2.13682e-05
-9.7239e-05 5.89564e-05 -2.29132e-05
-0.000119733 5.63807e-05 -2.65684e-05
-0.000134637 5.46676e-05 -3.0636e-05
-0.000143087 5.35945e-05 -3.3679e-05
-0.000153404 5.20839e-05 -3.86101e-05
-0.000163975 5.03099e-05 -4.5593e-05
-0.000170433 4.87051e-05 -5.22641e-05
-0.000173128 4.75556e-05 -5.66401e-05
-0.000173282 4.64099e-05 -6.06305e-05
-0.000172308 4.52381e-05 -6.37783e-05
-0.000169358 4.40589e-05 -6.65296e-05
-0.000163758 4.25199e-05 -6.9263e-05
-0.000156298 4.1206e-05 -7.12984e-05
-0.00014988 4.06285e-05 -7.24598e-05
-0.000145229 4.04569e-05 -7.31396e-05
-0.000137978 4.05983e-05 -7.40425e-05
-0.000128542 4.21496e-05 -7.50425e-05
-0.000120316 4.53133e-05 -7.6058e-05
-0.000114431 4.9989e-05 -7.7408e-05
-0.000111756 5.52874e-05 -7.95269e-05
-0.000111971 5.87004e-05 -8.29761e-05
-0.000112259 5.62587e-05 -8.69699e-05
-0.000110408 5.24047e-05 -9.00543e-05
-0.000101662 4.43832e-05 -9.50972e-05
-8.17111e-05 3.35203e-05 -0.000101696
-5.26868e-05 2.57742e-05 -0.000106797
-1.81674e-05 2.1892e-05 -0.000109547
1.36548e-05 3.43153e-05 -7.17992e-05
3.87772e-05 4.04926e-05 -6.58643e-05
5.7003e-05 5.35197e-05 -5.46891e-05
6.2432e-05 7.41738e-05 -3.98457e-05
5.59324e-05 9.37046e-05 -2.8224e-05
4.29675e-05 0.000104586 -2.12862e-05
1.74078e-05 0.000111542 -1.2906e-05
-1.66965e-05 0.000108777 -6.78765e-06
-4.77487e-05 0.000103061 -4.06054e-06
-7.57489e-05 9.73357e-05 -3.83251e-06
-0.000100889 9.23351e-05 -5.76422e-06
-0.000122956 8.80782e-05 -9.72285e-06
-0.000137555 8.53314e-05 -1.40341e-05
-0.000145818 8.36297e-05 -1.72419e-05
-0.000155881 8.1257e-05 -2.24091e-05
-0.000166177 7.85123e-05 -2.9609e-05
-0.000172481 7.60355e-05 -3.64029e-05
-0.000175133 7.42371e-05 -4.08569e-05
-0.000175318 7.24254e-05 -4.49456e-05
-0.000174385 7.05265e-05 -4.82864e-05
-0.000171432 6.85926e-05 -5.12963e-05
-0.000165674 6.60087e-05 -5.45812e-05
-0.000157712 6.37408e-05 -5.73598e-05
-0.00015065 6.26852e-05 -5.91457e-05
-0.000145357 6.23348e-05 -6.02265e-05
-0.000136825 6.24851e-05 -6.16681e-05
-0.000125348 6.50657e-05 -6.30831e-05
-0.000114906 7.06734e-05 -6.41327e-05
-0.000107353 7.96709e-05 -6.51251e-05
-0.000105238 9.15362e-05 -6.65862e-05
-0.000111333 0.000102769 -6.95244e-05
-0.000119778 0.000101272 -7.42654e-05
-0.000123542 9.18554e-05 -7.85256e-05
-0.000116901 7.23746e-05 -8.59365e-05
-9.45405e-05 5.08843e-05 -9.53769e-05
-6.05462e-05 3.73714e-05 -0.000102335
-2.07651e-05 3.10223e-05 -0.000105971
1.72379e-05 3.53657e-05 -6.49303e-05
5.01347e-05 4.26398e-05 -5.72964e-05
7.77699e-05 5.91767e-05 -4.23731e-05
9.30813e-05 9.04443e-05 -2.10415e-05
8.84391e-05 0.000133886 -2.52064e-06
6.27533e-05 0.000166807 8.11403e-06
1.94669e-05 0.000162326 1.71806e-05
-2.36693e-05 0.00014683 2.09334e-05
-5.55412e-05 0.000134525 2.16926e-05
-8.2512e-05 0.000125224 2.07351e-05
-0.000106497 0.000118028 1.81872e-05
-0.000127652 0.000112229 1.39064e-05
-0.000141703 0.000108571 9.40437e-06
-0.000149654 0.000106322 6.08734e-06
-0.000159313 0.000103208 8.15404e-07
-0.000169196 9.9649e-05 -6.27465e-06
-0.000175308 9.64372e-05 -1.28338e-05
-0.000177941 9.40727e-05 -1.71752e-05
-0.00017823 9.16678e-05 -2.12347e-05
-0.000177419 8.90944e-05 -2.48008e-05
-0.000174521 8.64472e-05 -2.81852e-05
-0.00016861 8.28379e-05 -3.23965e-05
-0.000159973 7.9582e-05 -3.64765e-05
-0.000151988 7.79684e-05 -3.93789e-05
-0.000145729 7.73701e-05 -4.11738e-05
-0.000135197 7.74091e-05 -4.35553e-05
-0.000120353 8.08566e-05 -4.56185e-05
-0.000105711 8.89346e-05 -4.6592e-05
-9.35683e-05 0.000103171 -4.66672e-05
-8.86579e-05 0.000125673 -4.61784e-05
-0.000102733 0.000158251 -4.62976e-05
-0.000133089 0.000178795 -5.08086e-05
-0.000155217 0.00014424 -5.82049e-05
-0.000149127 9.40646e-05 -7.17891e-05
-0.000116714 5.84345e-05 -8.67618e-05
-7.25488e-05 4.02099e-05 -9.67087e-05
-2.45165e-05 3.23937e-05 -0.000101633
2.00062e-05 3.05517e-05 -6.03161e-05
5.94748e-05 3.73749e-05 -5.13702e-05
9.80481e-05 5.35546e-05 -3.32182e-05
0.000136987 8.79066e-05 -4.59522e-06
0.000156882 0.000157194 2.74019e-05
9.28145e-05 0.000272112 4.97658e-05
1.81924e-06 0.000203611 5.13905e-05
-3.92907e-05 0.000171048 4.84135e-05
-6.59009e-05 0.000153217 4.60244e-05
-8.98122e-05 0.00014144 4.35866e-05
-0.000112038 0.000132822 4.03914e-05
-0.000132138 0.000126007 3.589e-05
-0.000145623 0.000121716 3.13434e-05
-0.000153264 0.000119074 2.8032e-05
-0.000162522 0.000115417 2.28975e-05
-0.00017201 0.000111234 1.63534e-05
-0.000177961 0.00010745 1.0424e-05
-0.000180605 0.000104652 6.40329e-06
-0.000181024 0.000101801 2.53349e-06
-0.000180364 9.87366e-05 -1.18533e-06
-0.000177558 9.55763e-05 -4.90771e-06
-0.000171557 9.12371e-05 -1.0069e-05
-0.000162333 8.72683e-05 -1.55292e-05
-0.000153496 8.52248e-05 -1.96565e-05
-0.000146309 8.4415e-05 -2.22397e-05
-0.000133793 8.4301e-05 -2.56119e-05
-0.000115455 8.81903e-05 -2.82319e-05
-9.58713e-05 9.77693e-05 -2.89319e-05
-7.63527e-05 0.000115553 -2.76792e-05
-5.97832e-05 0.000146682 -2.39876e-05
-6.42055e-05 0.000205673 -1.66952e-05
-0.000154395 0.000321635 -1.18513e-05
-0.000233469 0.00018659 -3.06403e-05
-0.000201855 9.6459e-05 -5.79988e-05
-0.000140475 5.44975e-05 -7.99501e-05
-8.30775e-05 3.58476e-05 -9.26952e-05
-2.7565e-05 2.82727e-05 -9.86737e-05
2.15723e-05 2.38306e-05 -5.77651e-05
6.47496e-05 2.91945e-05 -4.80859e-05
0.000109795 4.14909e-05 -2.81441e-05
0.000171084 6.45157e-05 4.71998e-06
0.000271269 9.8659e-05 4.90954e-05
-0.0116589 0.000299122 0.0644373
-0.04767 0.000196569 0.064348
-0.0955765 0.000156286 0.063963
-0.143002 0.000137786 0.0630068
-0.189326 0.000126578 0.0609852
-0.233487 0.000118643 0.057208
-0.273874 0.000112436 0.0508929
-0.301083 0.000108533 0.0439081
-0.316506 0.000106131 0.0387071
-0.335168 0.000102802 0.0306723
-0.354303 9.89894e-05 0.0206815
-0.366364 9.55318e-05 0.011785
-0.371778 9.29721e-05 0.00574105
-0.37273 9.03622e-05 -0.000131588
-0.371487 8.75576e-05 -0.00597874
-0.365809 8.46646e-05 -0.0119723
-0.353458 8.06881e-05 -0.0207388
-0.33415 7.7037e-05 -0.0305476
-0.315437 7.51353e-05 -0.0384224
-0.30004 7.43682e-05 -0.0435165
-0.27295 7.42201e-05 -0.050351
-0.232811 7.77209e-05 -0.056513
-0.188978 8.65144e-05 -0.0601856
-0.143019 0.000103293 -0.0621433
-0.095957 0.000134473 -0.0630638
-0.0483688 0.000201383 -0.063419
-0.0124874 0.000356161 -0.0634449
-0.000394008 0.000121998 -8.29069e-06
-0.000247771 7.20477e-05 -4.98305e-05
-0.00015494 4.26717e-05 -7.61129e-05
-8.91708e-05 2.81975e-05 -9.04526e-05
-2.93201e-05 2.21556e-05 -9.70296e-05
2.32461e-05 9.95562e-06 -5.50148e-05
7.00827e-05 1.21877e-05 -4.45705e-05
0.000118665 1.70682e-05 -2.29832e-05
0.00017135 2.40205e-05 1.18362e-05
0.000209277 1.90842e-05 5.0957e-05
-0.0117582 0.000130048 0.064423
-0.0477275 8.78253e-05 0.0643244
-0.0955984 6.74909e-05 0.0639385
-0.143013 5.86148e-05 0.062984
-0.189332 5.35786e-05 0.0609644
-0.233491 5.0135e-05 0.0571892
-0.273877 4.74859e-05 0.0508761
-0.301087 4.58369e-05 0.0438927
-0.316508 4.48255e-05 0.0386925
-0.335171 4.34286e-05 0.0306592
-0.354305 4.18328e-05 0.0206705
-0.366366 4.03841e-05 0.011776
-0.371781 3.93073e-05 0.00573336
-0.372732 3.82068e-05 -0.0001381
-0.371489 3.70189e-05 -0.00598434
-0.365811 3.57915e-05 -0.0119771
-0.353461 3.40996e-05 -0.020743
-0.334152 3.25424e-05 -0.0305517
-0.315438 3.1729e-05 -0.0384269
-0.30004 3.14012e-05 -0.0435214
-0.272949 3.13397e-05 -0.0503566
-0.232807 3.28536e-05 -0.05652
-0.188969 3.66902e-05 -0.060195
-0.143003 4.41752e-05 -0.0621564
-0.0959222 5.86807e-05 -0.0630823
-0.0482855 9.06295e-05 -0.0634435
-0.0123593 0.000149933 -0.0634679
-0.000321487 2.30098e-05 -6.50807e-06
-0.000250879 2.67349e-05 -4.38422e-05
-0.00016613 1.76084e-05 -7.22375e-05
-9.54179e-05 1.1809e-05 -8.80472e-05
-3.12189e-05 9.27677e-06 -9.52521e-05
2.32464e-05 -1.00312e-05 -5.5019e-05
7.00844e-05 -1.22624e-05 -4.45748e-05
0.000118671 -1.71392e-05 -2.29873e-05
0.000171366 -2.40782e-05 1.18341e-05
0.000209305 -1.91085e-05 5.09598e-05
-0.0117582 -0.000130355 0.064423
-0.0477275 -8.80827e-05 0.0643244
-0.0955984 -6.77288e-05 0.0639385
-0.143013 -5.88511e-05 0.062984
-0.189332 -5.38159e-05 0.0609644
-0.233491 -5.03683e-05 0.0571891
-0.273877 -4.77077e-05 0.0508761
-0.301087 -4.60451e-05 0.0438926
-0.316508 -4.50237e-05 0.0386925
-0.335171 -4.36106e-05 0.0306592
-0.354305 -4.19928e-05 0.0206705
-0.366366 -4.0524e-05 0.011776
-0.371781 -3.94349e-05 0.00573336
-0.372732 -3.83236e-05 -0.000138101
-0.371489 -3.71287e-05 -0.00598433
-0.365811 -3.58961e-05 -0.0119771
-0.353461 -3.42025e-05 -0.020743
-0.334152 -3.2648e-05 -0.0305517
-0.315438 -3.18398e-05 -0.0384269
-0.30004 -3.15163e-05 -0.0435214